24
Lattice="8.52 0.0 0.0 0.0 7.378536 0.0 0.0 0.0 30.0" Properties=species:S:1:pos:R:3:id:I:1:type:I:1:forces:R:3 comment="# Graphene data 5.000000e+00 * 5.000000e+00" energy=-168.6283790744307 stress="-0.012961925322677752 -0.002410259688638135 -0.0007999619321881458 -0.002410259688638135 -0.020225264838247645 0.0027640234436796147 -0.0007999619321881458 0.0027640234436796147 0.0005107310163010835" free_energy=-168.6283790744307 pbc="T T T"
C       -0.08315394       1.26256693      15.01616953        1        6      14.48700000      -2.97586000      -0.58461200
C        0.62558683      -0.03113973      14.92155840        2        6       6.15703000       3.03418000       1.22311000
C        2.21440583      -0.02904984      15.04931852        3        6      -7.79711000       7.89669000      -0.76438500
C        2.79020365       1.32785607      15.08839131        4        6       2.90088000      -9.08997000      -0.57308200
C        4.18915030       1.30816982      15.02808047        5        6      -0.27452300      -9.43962000       0.21620500
C        5.00045732      -0.04981277      15.00025913        6        6     -10.13410000       2.58361000       0.91959200
C        6.30647742      -0.03274539      15.02133796        7        6      11.45610000      -0.10213500      -1.75511000
C        7.19098584       1.15356643      14.92416149        8        6     -17.58450000       3.68040000       1.64914000
C        0.09351927       3.66118055      15.01125062        9        6     -10.82550000       5.98499000      -0.41794900
C        0.63409792       2.50394413      15.04191675       10        6       7.23611000     -10.17950000      -0.49621700
C        2.09640889       2.42859112      14.95553882       11        6      -5.67463000       6.56131000       0.82792500
C        2.76346952       3.69914028      14.95600069       12        6       2.00916000       0.21591400       0.38793300
C        4.23804121       3.60163541      15.00126510       13        6      -2.62323000       4.40677000      -0.09396330
C        4.88481739       2.40153389      15.01734481       14        6       8.85759000       5.39020000       0.29764400
C        6.43320732       2.51353742      15.04436854       15        6      -8.23630000     -13.81500000      -1.10734000
C        7.05448561       3.61126473      14.91547850       16        6       8.87588000      13.55220000       1.44452000
C        0.08048989       6.07411620      14.90110528       17        6      -9.34973000       4.88742000       0.26090600
C        0.64873013       4.90136393      15.05692921       18        6       6.23562000      -1.65210000      -0.62283300
C        2.06606155       4.98604710      15.03524508       19        6       0.85152000      -4.13938000      -0.65610400
C        2.79630005       6.17090143      14.94515825       20        6       3.20181000      -4.08867000       1.50661000
C        4.18927299       6.13095244      15.06939917       21        6       3.51477000      -2.20356000      -1.26853000
C        4.98853928       4.82652634      15.04977432       22        6      -2.67268000       3.50396000       0.61488400
C        6.40832387       4.98607788      15.07091014       23        6      -2.61587000     -10.73590000      -1.55351000
C        7.12097985       6.08187583      14.93929045       24        6       2.00467000       6.72398000       0.54517300
