24
Lattice="8.52 0.0 0.0 0.0 7.378536 0.0 0.0 0.0 30.0" Properties=species:S:1:pos:R:3:id:I:1:type:I:1:forces:R:3 comment="# Graphene data 5.000000e+00 * 5.000000e+00" energy=-168.5597608393061 stress="-0.008886270886287259 0.00486053212352529 -0.0006753374730193823 0.00486053212352529 -0.023973707956637107 0.0011312738025780285 -0.0006753374730193823 0.0011312738025780285 0.0009256583038234644" free_energy=-168.5597608393061 pbc="T T T"
C        0.00598688       1.20462449      14.92693481        1        6      -5.16918000       4.67429000       1.72816000
C        0.61786388       0.02928075      14.98677507        2        6       4.32524000      -4.06692000      -0.09556490
C        2.03166195       0.05223607      15.07112808        3        6       3.54871000      -1.68932000      -1.09095000
C        2.84029842       1.31397818      15.06324312        4        6      -0.99878900      -1.89797000      -0.17196400
C        4.25707219       1.23238667      15.05904032        5        6      -1.90958000      -1.46536000       0.07663540
C        4.97155832       0.01062548      15.07957525        6        6      -3.60716000      -3.45381000      -1.92466000
C        6.37723552      -0.09152866      14.94014559        7        6      -2.30641000       9.59880000       2.51631000
C        7.00396808       1.27291137      15.08850020        8        6       6.18797000      -5.52294000      -2.98428000
C        0.05556670       3.78818338      14.97757081        9        6     -10.00810000     -17.73610000       1.10972000
C        0.80385159       2.36097462      14.99467150       10        6      -9.58911000       6.56634000      -0.96583600
C        2.10135062       2.55563862      14.98757288       11        6       7.41610000      -3.98478000       0.89637900
C        2.76222743       3.78772350      15.04970558       12        6      13.48370000     -18.65550000      -0.45729300
C        4.30461846       3.65498143      15.02124704       13        6      -5.13953000       6.32501000       0.58194400
C        4.87886312       2.43957359      14.97454973       14        6       7.85678000       0.71623600      -0.44687500
C        6.42797212       2.48871539      14.92092540       15        6      -6.72840000      -0.02850260       1.88946000
C        7.06304578       3.70332732      15.09289842       16        6       3.45076000       3.37373000      -2.50093000
C        0.00859382       6.16218167      14.95848141       17        6      -0.47431500      -1.66805000       0.72483000
C        0.67505817       4.86059010      14.97668808       18        6       9.50608000      14.82500000       0.58184700
C        2.17293980       4.84106455      15.08195574       19        6     -13.63460000      17.56740000      -1.29022000
C        2.81051027       6.07113901      14.93739574       20        6      -4.23151000       3.96185000       1.52059000
C        4.16019640       6.05486576      14.95193366       21        6       3.63954000       9.21680000       1.07811000
C        4.95404323       5.00527288      15.06556756       22        6       3.14534000      -8.72445000      -1.47681000
C        6.39563595       5.00268404      14.95205607       23        6      -0.85088600      -3.09671000       2.36792000
C        7.11510882       6.19636825      15.03031991       24        6       2.08738000      -4.83503000      -1.66652000
