24
Lattice="8.52 0.0 0.0 0.0 7.378536 0.0 0.0 0.0 30.0" Properties=species:S:1:pos:R:3:id:I:1:type:I:1:forces:R:3 comment="# Graphene data 5.000000e+00 * 5.000000e+00" energy=-170.5253235862614 stress="-0.010290621529741417 -0.002326211130655683 0.000549573600673627 -0.002326211130655683 -0.014544411627278446 -0.0012125826973355914 0.000549573600673627 -0.0012125826973355914 0.0007055834969303784" free_energy=-170.5253235862614 pbc="T T T"
C       -0.00016214       1.25013594      15.04321287        1        6       2.76010000      -2.17914000      -0.23174700
C        0.65323547      -0.06506701      15.06063140        2        6       9.46840000      15.46990000       0.17252400
C        2.13392288       0.04850591      15.00472149        3        6      -1.95618000       0.98265000      -0.38741700
C        2.90486812       1.27733422      14.98119637        4        6      -6.22708000      -1.19449000       0.55225800
C        4.24122564       1.30941063      14.90508701        5        6       4.38907000      -4.99567000       0.67867900
C        4.87111025      -0.07052127      14.95240096        6        6       5.96670000       7.70700000      -0.56366700
C        6.46152190       0.05282609      14.91658072        7        6      -6.89078000      -8.51562000       0.01497610
C        7.17273913       1.16822625      14.99910086        8        6      -3.98163000       8.21044000      -0.15006700
C        0.03550734       3.70999968      15.03623491        9        6      -3.28884000       0.23708300      -1.18789000
C        0.65001170       2.50608972      14.99034366       10        6       4.24373000      -4.79082000       1.51441000
C        2.13511954       2.42710253      15.08944868       11        6      -3.01939000       4.49503000      -1.88854000
C        2.74202459       3.75618511      14.97481127       12        6       7.57999000      -9.55947000       2.03327000
C        4.24889400       3.65607926      15.06391493       13        6      -3.46841000       1.18478000      -1.51871000
C        5.01090887       2.46754702      15.00124727       14        6      -4.51768000       0.49199600      -0.14609800
C        6.35304369       2.50471661      14.99499968       15        6       8.40630000      -1.77035000       0.15214100
C        7.16054177       3.77662094      15.01948844       16        6      -1.84881000      -8.51451000       0.77853600
C        0.06170491       6.21998565      15.03950604       17        6      -9.06932000     -16.47750000      -1.98453000
C        0.70723636       4.87724331      14.92321952       18        6       1.23421000       5.82448000       2.20984000
C        2.10370665       4.88675476      15.06179701       19        6      -2.03691000       8.80565000      -2.31897000
C        2.81371366       6.23173161      14.91341503       20        6      -3.36783000      -5.34812000       1.78300000
C        4.16063385       6.16593524      14.99035255       21        6       3.50263000      -4.37406000      -1.01702000
C        4.89537174       4.88336715      14.95468561       22        6       2.28326000       2.17846000       1.83184000
C        6.36248330       4.83542990      15.07580745       23        6      -2.33604000       7.29349000      -2.03031000
C        7.06504261       6.06122858      14.91387531       24        6       2.17451000       4.83874000       1.70349000
