24
Lattice="8.52 0.0 0.0 0.0 7.378536 0.0 0.0 0.0 30.0" Properties=species:S:1:pos:R:3:id:I:1:type:I:1:forces:R:3 comment="# Graphene data 5.000000e+00 * 5.000000e+00" energy=-168.5688320909269 stress="-0.015069697052863226 0.0015540960073004966 -0.0004024435464269112 0.0015540960073004966 -0.018890399776877485 -6.181462196865852e-05 -0.0004024435464269112 -6.181462196865852e-05 0.0003362865297353665" free_energy=-168.5688320909269 pbc="T T T"
C        0.03247483       1.13454479      14.92769826        1        6      -3.80501000       5.82629000       0.14884500
C        0.70361909      -0.06738499      14.99172388        2        6       0.45612400       0.11547100      -0.36066400
C        2.12212903       0.04585360      14.99648250        3        6      -2.13668000      -9.01271000       0.36766600
C        2.84478765       1.15292820      14.99299137        4        6      -2.34402000       6.65673000       0.94540800
C        4.20544925       1.17711294      15.09219745        5        6       5.73700000       0.98153100      -1.13282000
C        4.97269668      -0.09750252      15.03488646        6        6       2.66449000       4.29619000       0.54401200
C        6.48650073       0.05399375      15.04744714        7        6      -8.45906000     -13.95600000      -0.90506000
C        7.09395212       1.16035565      14.95214153        8        6       5.39898000      11.93910000       0.20860200
C        0.00530035       3.61279955      15.09471989        9        6      -9.10414000      16.95510000      -0.27305100
C        0.61397516       2.54493906      14.98080450       10        6       8.06980000     -17.91030000      -0.22059200
C        2.03455167       2.39389037      15.07075949       11        6       3.36294000       2.56214000      -0.82374800
C        2.77898727       3.66372073      15.09505735       12        6      -0.30515100      -0.46006900      -1.00492000
C        4.16878418       3.72226646      14.97852312       13        6       4.87436000      -4.42390000       1.36922000
C        5.06601310       2.50289006      15.01215262       14        6     -17.39240000      -2.42896000       0.15165300
C        6.32807564       2.50027930      15.02937749       15        6      13.75140000      -1.78581000      -0.08004000
C        7.04252961       3.76117908      15.09727248       16        6       4.81761000      -9.33184000      -0.06524910
C       -0.03285511       6.07628568      14.98789430       17        6       1.73682000       9.13321000      -0.53484300
C        0.64498891       4.99987260      14.98206603       18        6       8.20844000     -13.30360000       1.18383000
C        2.17865071       4.94114790      15.02258936       19        6      -9.04631000      -5.18553000       0.44587900
C        2.76605252       6.10987294      15.07036953       20        6       8.20025000       6.43988000      -1.04128000
C        4.32666304       6.06036188      14.99748801       21        6      -5.16264000       2.19069000       1.05859000
C        4.98521852       4.85764142      15.05861999       22        6      -2.49831000       1.00828000      -1.20253000
C        6.34919409       4.87118228      15.01195616       23        6       1.18689000       6.70145000      -0.19248500
C        7.16884880       6.07319268      14.91863200       24        6      -8.21131000       2.99260000       1.41357000
