24
Lattice="8.52 0.0 0.0 0.0 7.378536 0.0 0.0 0.0 30.0" Properties=species:S:1:pos:R:3:id:I:1:type:I:1:forces:R:3 comment="# Graphene data 5.000000e+00 * 5.000000e+00" energy=-170.390275741073 stress="-0.015663430591355814 0.0012612500753456826 0.0005719191731553894 0.0012612500753456826 -0.008058934340986123 -0.0009580379992918088 0.0005719191731553894 -0.0009580379992918088 0.0007073500102637261" free_energy=-170.390275741073 pbc="T T T"
C       -0.09680590       1.26299686      14.96034988        1        6       6.87703000      -2.41194000       0.03678580
C        0.71145098       0.04794142      14.96254438        2        6      -0.85159300      -1.19066000       1.20931000
C        2.15024781       0.09308716      15.08549558        3        6      -1.23046000      -4.31808000      -1.96981000
C        2.86218679       1.29637688      14.97122404        4        6      -3.54395000      -1.87746000       1.55017000
C        4.21508344       1.16730804      15.00637196        5        6       1.14526000       9.75300000      -0.49514300
C        4.95920615       0.06925531      15.00396440        6        6      -3.11383000      -6.40463000      -1.03358000
C        6.29110240      -0.09373414      14.96508704        7        6       8.89973000       4.00509000       0.68456500
C        7.07508436       1.23125787      14.94483129        8        6      -3.56024000      -5.01714000      -0.05498240
C       -0.02423128       3.66586877      14.90391370        9        6       0.92398900      -4.71223000       1.93674000
C        0.79525736       2.38165505      14.99738592       10        6     -13.73000000       3.58175000      -1.05091000
C        2.07199649       2.46657515      15.05085291       11        6       8.51952000      -2.55077000      -0.36335100
C        2.75307806       3.63009383      15.05339253       12        6       5.01005000       6.53772000      -1.05734000
C        4.31521032       3.65736853      15.00908687       13        6      -8.67115000      12.14360000       1.20554000
C        4.87965659       2.53815082      14.97746591       14        6       8.31680000     -15.77150000      -0.09754350
C        6.32819790       2.36957579      14.97469335       15        6      -0.64261600       6.71176000       0.69695600
C        7.10369751       3.67772980      15.08622536       16        6      -2.62552000      -1.14495000      -2.03951000
C        0.08103277       6.13654610      15.04277284       17        6      -3.89662000       0.59706600      -0.16300700
C        0.61606546       4.84083072      15.02235655       18        6       7.27102000       5.56512000      -1.38826000
C        2.09650708       4.95356740      14.91013798       19        6      -1.94721000      -5.81425000       1.67605000
C        2.86043238       6.09223216      14.95026695       20        6      -3.59045000       5.94971000       0.23525100
C        4.20671915       6.21719446      14.90092859       21        6       6.36299000      -3.04724000       1.90798000
C        5.05594951       4.94926807      15.08998964       22        6      -6.13308000       0.61872800      -2.13258000
C        6.42174421       4.98290785      15.00943366       23        6       1.67927000      -7.12404000       1.57192000
C        7.17008082       6.09965759      15.04748525       24        6      -1.46899000       5.92137000      -0.86526200
