24
Lattice="8.52 0.0 0.0 0.0 7.378536 0.0 0.0 0.0 30.0" Properties=species:S:1:pos:R:3:id:I:1:type:I:1:forces:R:3 comment="# Graphene data 5.000000e+00 * 5.000000e+00" energy=-172.747384777612 stress="-0.009188736894827514 -0.0013330884024733943 -0.0007585622061523206 -0.0013330884024733943 -0.0072732424256732415 -0.00012166367440053717 -0.0007585622061523206 -0.00012166367440053717 0.0005527182678104108" free_energy=-172.747384777612 pbc="T T T"
C        0.00726558       1.14569808      14.90648423        1        6      -0.46576900       3.39078000       1.13955000
C        0.78507894       0.00306800      15.08313153        2        6      -3.09448000      -4.24836000      -1.73362000
C        2.16369436       0.00009313      14.95856281        3        6      -1.44478000      -3.02829000       0.80241400
C        2.75897592       1.19848378      14.92413356        4        6       4.55332000       3.58081000       0.26193500
C        4.20902857       1.18705875      15.03662581        5        6       0.74815700       4.38309000      -0.89297800
C        5.01654764       0.06577159      14.98547018        6        6      -7.92624000      -3.37030000       1.64183000
C        6.31384865      -0.03529151      15.09062742        7        6       8.86100000       1.84103000      -1.54894000
C        7.10457588       1.18730708      14.92520431        8        6       0.55444400      -4.09367000       0.67415000
C       -0.00829058       3.74894327      14.98396040        9        6      -2.96727000      -7.29380000       1.03879000
C        0.68006912       2.45188645      14.95694643       10        6      -1.14238000       0.25805900      -0.87987900
C        2.07643626       2.44889991      14.90179467       11        6       2.93370000       0.09196580       0.32616600
C        2.89690063       3.64803298      14.93618292       12        6      -6.21257000       0.18510500      -0.00778827
C        4.24323153       3.74113782      14.94431714       13        6       1.68833000      -8.39583000       0.75158100
C        4.99234382       2.43396761      15.06852663       14        6      -2.65086000       0.60392100      -1.38358000
C        6.42192720       2.36469753      14.96236711       15        6      -2.91411000       2.73698000       1.10852000
C        7.05767845       3.59276574      15.09176357       16        6       2.26584000       5.64678000      -1.44798000
C        0.05843479       6.06030328      15.02675527       17        6      -5.43376000       8.68887000       1.11699000
C        0.67060424       4.90175996      15.07155192       18        6       6.35222000      -2.40391000      -0.74157200
C        2.11611669       4.86273785      15.02510832       19        6       1.90196000       2.40577000      -0.01920100
C        2.91453399       6.18049341      15.01958362       20        6      -4.75253000      -1.89124000       0.22197500
C        4.28433289       6.23028944      15.09914586       21        6       2.41768000      -4.46853000      -1.71699000
C        4.95223715       4.84113837      14.99852285       22        6       2.28044000      10.30360000       0.93359700
C        6.35720146       4.94770983      15.05765512       23        6      -1.30942000      -8.18265000       0.15045700
C        7.01237036       6.11471167      15.06149213       24        6       5.75707000       3.25983000       0.20456600
