24
Lattice="8.52 0.0 0.0 0.0 7.378536 0.0 0.0 0.0 30.0" Properties=species:S:1:pos:R:3:id:I:1:type:I:1:forces:R:3 comment="# Graphene data 5.000000e+00 * 5.000000e+00" energy=-170.4206079119032 stress="-0.017954870184063488 -0.004105500750794289 0.0014593510934492496 -0.004105500750794289 -0.006433427862343877 0.0006332010801185896 0.0014593510934492496 0.0006332010801185896 0.0009009239063853915" free_energy=-170.4206079119032 pbc="T T T"
C        0.01602229       1.30882250      15.04456840        1        6      -3.74032000      -5.62900000      -2.08779000
C        0.64957331      -0.09217454      14.92007696        2        6       5.19585000       9.06671000       2.21446000
C        2.18193363       0.06084928      15.02912805        3        6      -6.50716000      -9.88352000      -1.50261000
C        2.82084321       1.20728702      14.97202625        4        6      -0.72143700       7.75113000      -0.15811600
C        4.18846599       1.30452266      15.01648879        5        6       4.35426000      -5.32382000      -0.07719490
C        4.92110150       0.01544422      14.97136612        6        6       1.00925000       1.88523000       1.40655000
C        6.40773587      -0.07107238      15.04561371        7        6      -4.03287000       6.67193000      -1.65806000
C        7.02731390       1.27994111      14.98390714        8        6       3.25342000      -3.39434000       1.80051000
C        0.01349620       3.59534882      14.98173800        9        6      -6.76185000       8.95855000      -0.99034300
C        0.67522302       2.49640697      14.90279392       10        6       4.59486000      -5.90748000       0.71539200
C        2.05680763       2.49633104      14.90515284       11        6       4.11497000      -2.61813000       0.57463300
C        2.88050267       3.66354365      15.01283445       12        6     -12.05150000       1.10946000      -0.17755200
C        4.16014652       3.65831913      14.90221897       13        6      14.22070000       1.28388000       1.65745000
C        5.04959159       2.39107911      15.06469432       14        6     -17.18800000       4.92597000      -1.25363000
C        6.29319376       2.45939650      15.07676419       15        6      13.16650000       0.13736100      -1.38704000
C        7.05839612       3.62297866      14.92089125       16        6       1.59037000       1.98925000       1.92806000
C       -0.03302147       6.15320977      15.07785102       17        6       0.07959920      -5.93408000      -2.10126000
C        0.67564750       4.86198680      14.98392687       18        6      -1.33428000       1.40825000       1.66909000
C        2.07607007       4.89774828      15.09625278       19        6       2.87037000      -1.47106000      -1.41966000
C        2.83644602       6.07284417      14.99289392       20        6      -2.64366000       5.23423000       1.66308000
C        4.19479448       6.21796433      15.07683538       21        6       4.62661000      -4.81256000      -1.30180000
C        5.02735608       4.97716752      15.01590961       22        6      -6.73502000      -1.71131000      -0.03968090
C        6.39295559       4.89199911      15.02253722       23        6       3.12494000       1.29643000      -1.56817000
C        7.11288799       6.16573442      14.92439845       24        6      -0.48559900      -5.03307000       2.09368000
