24
Lattice="8.52 0.0 0.0 0.0 7.378536 0.0 0.0 0.0 30.0" Properties=species:S:1:pos:R:3:id:I:1:type:I:1:forces:R:3 comment="# Graphene data 5.000000e+00 * 5.000000e+00" energy=-168.8335300763509 stress="-0.017764805900977062 0.0018076943962220702 0.0002556099583411564 0.0018076943962220702 -0.016598902544282153 -0.0010447448226912487 0.0002556099583411564 -0.0010447448226912487 0.00036741751747267315" free_energy=-168.8335300763509 pbc="T T T"
C       -0.07638153       1.22143566      14.95655274        1        6       3.44366000       0.67073200      -0.41219300
C        0.78106250       0.08510150      14.93407026        2        6      -5.61374000      -5.55023000       1.18362000
C        2.17929307      -0.05707264      14.99145854        3        6      -1.92098000       5.49531000      -0.66056400
C        2.79285515       1.30556773      14.97665287        4        6       3.52813000      -7.01995000       0.47564700
C        4.20379503       1.13845329      15.03756422        5        6       2.39679000       8.45343000      -0.31160900
C        5.00019956       0.04954733      15.01884894        6        6      -7.37809000      -5.38451000       0.01023680
C        6.29949092       0.07030283      14.92468356        7        6       6.96579000      -8.00455000       0.73462600
C        7.05545704       1.16016951      14.93308097        8        6       0.86068400       8.57625000       0.43538500
C        0.07123198       3.65754961      15.08287512        9        6      -6.63020000       6.83034000      -1.30956000
C        0.62862084       2.46215914      14.98902769       10        6       6.98726000      -2.92985000       0.16996200
C        2.22440195       2.53991512      14.97909567       11        6     -11.25620000      -8.86116000      -0.35483300
C        2.89651722       3.61708051      15.01396114       12        6      -1.07913000      11.24620000       0.81079000
C        4.22334394       3.66737689      15.03364670       13        6       7.44795000       1.96490000       0.00831677
C        5.04788929       2.47715198      15.03213272       14        6     -13.31240000      -1.29098000       0.23950400
C        6.32735887       2.54929942      15.02095003       15        6      10.06670000      -5.96083000      -0.54386800
C        7.09788804       3.68641445      15.01693538       16        6       4.68701000      -2.11738000       0.17126000
C       -0.06572093       6.05802299      15.04846896       17        6       2.65209000      11.30140000      -0.94034700
C        0.68853263       5.01337957      14.96924219       18        6       6.78074000     -12.17230000       2.00262000
C        2.18962559       4.91590514      15.08938234       19        6      -3.77016000      -3.37865000      -1.62650000
C        2.82981126       6.10036679      15.01460456       20        6       5.54869000       3.23691000       0.60859600
C        4.30889153       6.15491493      15.03521954       21        6      -3.37413000       3.90179000      -0.04916120
C        4.97040916       4.99367794      15.02940859       22        6       3.56864000      -7.81032000      -0.95966300
C        6.47818307       4.86756091      14.90597509       23        6      -7.57222000       2.73883000       1.46101000
C        7.10830207       6.06123684      15.02466496       24        6      -3.02682000       6.06455000      -1.14328000
