24
Lattice="8.52 0.0 0.0 0.0 7.378536 0.0 0.0 0.0 30.0" Properties=species:S:1:pos:R:3:id:I:1:type:I:1:forces:R:3 comment="# Graphene data 5.000000e+00 * 5.000000e+00" energy=-171.1444235944055 stress="-0.008748801440410913 0.00441456001247247 0.00010139233518501322 0.00441456001247247 -0.014678939722682065 0.0010095053688610864 0.00010139233518501322 0.0010095053688610864 0.00041528466033952924" free_energy=-171.1444235944055 pbc="T T T"
C        0.02775753       1.16497148      15.07497097        1        6      -4.13142000       5.79879000       0.08038230
C        0.78178368       0.07613654      15.07577988        2        6      -3.19620000      -9.50297000      -1.83972000
C        2.09992118      -0.09221664      14.94059649        3        6       5.01880000       7.75357000       1.16566000
C        2.84703287       1.19365397      14.98953241        4        6      -4.41018000       1.73756000      -1.03920000
C        4.20704739       1.28458294      14.97929149        5        6       3.65885000      -4.83342000      -0.34111900
C        4.95445002      -0.03685960      14.96410412        6        6       2.91418000       6.58139000       0.16675000
C        6.39525872      -0.00345665      14.94850752        7        6      -1.96393000      -3.23296000       0.45311700
C        7.06932719       1.15113578      15.00275712        8        6       4.05775000       6.20539000       0.36490000
C        0.01456829       3.76000511      15.00139924        9        6       3.31676000      -2.42208000       1.04071000
C        0.65561851       2.47638918      15.06130036       10        6       2.17092000       0.52961800      -1.08842000
C        2.09632890       2.53143449      14.93319400       11        6       0.56982700      -3.44112000       1.84576000
C        2.78646690       3.78035441      15.06623670       12        6       9.14695000     -14.02310000      -1.66865000
C        4.26161064       3.72166056      14.94233298       13        6      -5.37044000      -5.19322000       0.90138400
C        4.91599074       2.46817738      14.92832779       14        6       4.03839000       1.73209000       0.53177000
C        6.47249794       2.48911277      15.02170321       15        6      -4.72244000      -4.43227000      -0.61984500
C        7.19984523       3.64353968      15.04648397       16        6      -4.29032000       5.12310000      -0.25729400
C        0.08746602       6.10461560      14.93765269       17        6      -5.42614000      13.12660000       1.66325000
C        0.72039090       5.00541121      15.03282318       18        6       5.86300000     -11.35640000      -0.64840800
C        2.15767316       4.84655281      15.01776973       19        6      -7.42443000      16.43750000       0.33476800
C        2.84267700       6.16327032      14.98817745       20        6       3.01677000      -5.19737000       0.16256600
C        4.32907925       6.17252458      15.05538321       21        6      -5.15376000      -6.28107000      -0.41544200
C        4.94645772       4.83380947      15.05160931       22        6       6.63643000       8.63428000       0.00979055
C        6.48069543       4.90729648      15.04928707       23        6      -2.47573000      -0.40185100       0.21701600
C        7.18871373       6.20230042      15.02239811       24        6      -1.84362000      -3.34199000      -1.01973000
