24
Lattice="8.52 0.0 0.0 0.0 7.378536 0.0 0.0 0.0 30.0" Properties=species:S:1:pos:R:3:id:I:1:type:I:1:forces:R:3 comment="# Graphene data 5.000000e+00 * 5.000000e+00" energy=-171.2434623906616 stress="-0.007041576660136964 0.0016973432275076404 0.0013421066442109795 0.0016973432275076404 -0.016045584274136857 0.00031573232977121564 0.0013421066442109795 0.00031573232977121564 0.00045949013484778713" free_energy=-171.2434623906616 pbc="T T T"
C        0.02331692       1.27945167      15.08041524        1        6      -6.66696000      -7.01346000      -2.28603000
C        0.62478961      -0.06790178      14.93986335        2        6       5.26633000       7.34307000       0.79995000
C        2.10261615      -0.06769176      14.91263312        3        6      -0.88144500       2.29287000       1.56900000
C        2.78932760       1.23379853      15.05032695        4        6       4.01180000      -6.42608000      -1.02006000
C        4.27621863       1.22834026      15.05478182        5        6      -2.10911000       1.93613000      -0.06521750
C        5.01091625       0.01829777      15.05660186        6        6      -2.53567000      -3.07150000      -0.62032600
C        6.42016144       0.04766530      14.91305482        7        6       0.97363500      -2.43221000       0.18829600
C        7.04435320       1.31913265      14.91848400        8        6      11.32210000     -15.59190000       0.58146100
C        0.03074666       3.77692335      15.07250829        9        6      -5.78000000     -10.52010000      -0.55835800
C        0.63607179       2.43808343      14.97925206       10        6       6.84991000       6.60038000       1.04401000
C        2.10944020       2.37093551      14.98044646       11        6      -2.45270000       8.09376000       0.60407200
C        2.88671713       3.69354192      15.07828962       12        6      -0.63450300      -2.60855000      -0.96151200
C        4.34704061       3.68760822      15.06403409       13        6      -6.02018000       1.21371000       0.16445900
C        4.97560618       2.52353327      14.99882070       14        6       2.98984000      -7.91408000       0.63608500
C        6.41822561       2.36631631      15.02487211       15        6      -9.49102000      17.25220000       0.56462800
C        7.07685052       3.63818352      15.08271765       16        6       1.50617000       2.65946000      -0.64692500
C       -0.02138076       6.16517412      14.95757784       17        6       4.32929000      -6.16645000      -0.55563600
C        0.66717293       4.89849429      14.94190334       18        6       6.31500000       7.59925000       0.37088800
C        2.16428953       4.91137014      14.98662586       19        6      -3.12197000      -0.33450300       0.57020100
C        2.85276652       6.13510939      15.06695725       20        6      -5.26662000      -0.60349300      -1.41896000
C        4.17080986       6.06808363      15.05387503       21        6       9.29958000       3.36059000       0.59178500
C        4.97323127       4.88601865      15.05163065       22        6       0.10151300       3.31481000      -0.58380300
C        6.36257018       4.91603836      14.93338886       23        6       2.68726000      -0.26964500       1.18372000
C        7.19582078       6.12896244      14.91517075       24        6     -10.69230000       1.28570000      -0.15174400
