24
Lattice="8.52 0.0 0.0 0.0 7.378536 0.0 0.0 0.0 30.0" Properties=species:S:1:pos:R:3:id:I:1:type:I:1:forces:R:3 comment="# Graphene data 5.000000e+00 * 5.000000e+00" energy=-170.1528205893748 stress="-0.015793834061394642 -0.01073419628332205 -4.5127461840092405e-05 -0.01073419628332205 -0.013826104557588937 -0.00021316653328448324 -4.5127461840092405e-05 -0.00021316653328448324 0.00029830677770605046" free_energy=-170.1528205893748 pbc="T T T"
C       -0.07516719       1.26900349      14.94345124        1        6       7.60801000      -3.48972000       0.08693800
C        0.76855578      -0.07359509      14.97651137        2        6      -6.95762000       4.67542000      -0.29554400
C        2.08710148       0.07050352      15.03561953        3        6       7.76368000      -2.94904000      -0.57584200
C        2.79846225       1.31420643      15.06590518        4        6       5.77881000      -8.56556000      -0.99075000
C        4.28744854       1.19195263      14.91409900        5        6      -2.23410000       0.89381300       1.74612000
C        5.01994138      -0.01344412      14.99530823        6        6       2.95321000       5.24464000      -1.21520000
C        6.46343348       0.09527218      14.90324373        7        6      -7.79233000     -15.79270000       0.47465400
C        7.12199089       1.14457247      14.97503991        8        6       1.71124000      16.27320000      -0.37084100
C        0.06651970       3.70762114      15.00872746        9        6      -4.86016000      -0.01235950      -0.39081300
C        0.61992173       2.51637639      14.92383941       10        6       7.59287000      -6.24655000       0.94923000
C        2.14557697       2.43963376      15.03471600       11        6      -4.90226000       9.02786000      -0.50304500
C        2.93420165       3.72159825      15.03367417       12        6     -11.58590000      -0.51859400       0.02590860
C        4.22003778       3.71693167      14.99991807       13        6      12.30210000      -0.77782500      -0.32450200
C        5.02337023       2.39028701      14.96776416       14        6      -1.73591000       5.12123000      -0.49942000
C        6.43443481       2.52592939      14.93940933       15        6      -1.12772000      -7.09309000       0.50600200
C        7.19260493       3.64968381      14.94941890       16        6      -1.59842000       6.86603000       0.48970000
C        0.03385271       6.11473194      14.93679772       17        6       0.58104500      -2.20563000       0.62223500
C        0.77414144       4.83716831      15.05271716       18        6       1.24833000       7.01713000      -0.83820300
C        2.19288979       4.99865613      15.00326854       19        6      -1.76278000      -8.78160000       0.31882600
C        2.92532209       6.09554365      14.91697649       20        6       0.81374100       9.98340000       1.25774000
C        4.35901892       6.22218846      14.98485891       21        6      -4.68316000      -5.22974000      -0.47326100
C        5.01310825       4.99117072      14.96919759       22        6       1.73453000      -3.30728000       0.35131500
C        6.47286644       4.99451670      14.96349848       23        6      -4.55053000      -9.52433000      -0.15984800
C        7.13355559       6.10949503      14.90353518       24        6       3.70327000       9.39130000      -0.19140400
