24
Lattice="8.52 0.0 0.0 0.0 7.378536 0.0 0.0 0.0 30.0" Properties=species:S:1:pos:R:3:id:I:1:type:I:1:forces:R:3 comment="# Graphene data 5.000000e+00 * 5.000000e+00" energy=-169.6875855684713 stress="-0.009157292497461077 0.008055364432089453 -0.0005204201785537518 0.008055364432089453 -0.01865817400460327 0.0007436169240558599 -0.0005204201785537518 0.0007436169240558599 0.0005764489784584281" free_energy=-169.6875855684713 pbc="T T T"
C        0.06869030       1.22969834      15.08821629        1        6      -0.95041900      -4.67424000      -2.47017000
C        0.70691628      -0.07512062      14.91434189        2        6       5.79882000       5.55975000       2.53257000
C        2.22565421      -0.07701177      15.09018741        3        6      -6.13622000       9.42065000      -1.63610000
C        2.83505486       1.30435099      15.03488864        4        6      -1.80287000      -4.74830000       0.03398120
C        4.19654769       1.24872388      14.99755969        5        6       4.94024000      -1.25222000      -0.19350300
C        5.06499138       0.04192812      14.94356662        6        6     -12.96790000      -1.45238000      -0.00399829
C        6.33811622      -0.06207638      14.96096122        7        6      12.87540000       3.23610000      -0.63268700
C        7.19804129       1.16336754      14.93182947        8        6      -5.62107000       0.88175900       1.18879000
C        0.03799428       3.63086338      14.97228437        9        6      -4.03014000       7.12498000       0.13636500
C        0.66496045       2.44571505      14.96508572       10        6       7.50782000       0.56005800       0.56135500
C        2.21920543       2.55767731      14.95529126       11        6      -9.77913000     -10.17540000       0.49237800
C        2.85370895       3.65684078      15.08083550       12        6       1.53983000      12.63120000      -0.94883600
C        4.23093611       3.74257121      14.92440653       13        6       2.01891000      -0.62971100       2.09360000
C        4.89518530       2.46334841      14.97534707       14        6       2.95091000       1.26562000      -0.87702200
C        6.36013894       2.37566261      14.91976341       15        6       1.67744000       3.37410000       0.70810500
C        7.11164470       3.77288285      14.98972279       16        6       3.13079000     -13.02260000      -0.69044000
C        0.07028824       6.12885391      14.90515914       17        6      -9.50576000       3.58158000      -0.55267700
C        0.64366995       4.97386192      14.97640847       18        6       7.36551000      -9.03700000       0.42850800
C        2.11323187       4.99477022      15.04881090       19        6       0.22828800      -4.26636000      -0.32051300
C        2.87939797       6.17092581      14.95193842       20        6       4.13000000      -4.94956000       0.42640000
C        4.32988623       6.10460776      14.90361560       21        6      -6.49965000      12.69520000       0.26147800
C        4.95226411       5.01063636      15.02067428       22        6       6.07246000     -13.41070000      -1.52908000
C        6.38671810       4.83213992      14.90794976       23        6      -3.53713000      11.79430000       1.00047000
C        7.11482215       6.16748721      14.90047522       24        6       0.59386300      -4.50684000      -0.00898281
