24
Lattice="8.52 0.0 0.0 0.0 7.378536 0.0 0.0 0.0 30.0" Properties=species:S:1:pos:R:3:id:I:1:type:I:1:forces:R:3 comment="# Graphene data 5.000000e+00 * 5.000000e+00" energy=-168.8190138243914 stress="-0.004325962437020458 0.004705799128116322 -0.00038927603775720115 0.004705799128116322 -0.02782039616810467 0.00012589830269270916 -0.00038927603775720115 0.00012589830269270916 0.0004954832439363256" free_energy=-168.8190138243914 pbc="T T T"
C        0.03013680       1.23704257      14.94481189        1        6      -6.16914000      -3.96764000       1.50890000
C        0.68599100      -0.06188054      15.08326950        2        6       0.38206900       4.33764000      -1.20602000
C        2.12219929       0.09753836      15.01739771        3        6      -1.06036000      -7.97666000       0.71034800
C        2.74547001       1.30663964      14.98056765        4        6      10.42340000      -8.07514000       0.63274900
C        4.28789157       1.18869209      15.05623036        5        6      -4.93814000       9.38489000      -0.88365100
C        4.90309214       0.03310870      15.02935243        6        6       9.49302000      -3.47506000       0.33095000
C        6.47573603      -0.08519098      15.01729421        7        6      -6.68014000       7.65471000      -0.35161100
C        7.00684429       1.31670423      15.02072764        8        6       6.88044000      -8.41643000      -0.87682500
C       -0.00252035       3.69854242      14.93320387        9        6      -0.58015700      -1.66666000       1.00129000
C        0.66677938       2.40971138      14.96249256       10        6       4.21561000       5.69125000      -0.97692000
C        2.12230977       2.41451281      14.92503931       11        6      -4.94184000      11.91840000       0.63105900
C        2.87304417       3.76198334      15.00887233       12        6       2.86082000     -14.75780000      -0.24266300
C        4.27445747       3.60638662      15.03661341       13        6      -4.75242000      12.53640000      -0.97380600
C        4.97865917       2.54861623      14.99614065       14        6       4.68847000     -12.29390000       0.34395100
C        6.40980849       2.49815055      14.98113828       15        6      -7.39270000      -1.47782000       0.62710100
C        7.02055445       3.64180603      15.09882938       16        6       7.03846000       9.73407000      -1.36287000
C       -0.06048008       6.13719319      15.03033850       17        6       5.42982000      -2.35837000      -0.94986300
C        0.79513434       4.92015986      14.90178804       18        6      -3.39428000      -0.26544100       0.59619400
C        2.22224740       4.84332022      14.91942199       19        6      -6.08687000      11.13430000       0.42606500
C        2.92117543       6.08851700      15.04224884       20        6      -2.40965000       4.92539000      -0.58480100
C        4.33928103       6.20778334      15.03544298       21        6      -6.23314000      -5.74505000      -0.83697000
C        4.90572035       4.93032835      14.91210715       22        6       6.17929000      -0.43433800       2.05966000
C        6.42584665       5.00584725      15.03240652       23        6      -7.46958000     -11.96150000      -0.52805500
C        7.09383182       6.09679235      14.94570672       24        6       4.51702000       5.55483000       0.90578600
