24
Lattice="8.52 0.0 0.0 0.0 7.378536 0.0 0.0 0.0 30.0" Properties=species:S:1:pos:R:3:id:I:1:type:I:1:forces:R:3 comment="# Graphene data 5.000000e+00 * 5.000000e+00" energy=-169.4040376707893 stress="-0.021541312163806028 -0.0025255504455099745 -3.390925219706431e-05 -0.0025255504455099745 -0.008048786786493395 -0.0013383850631361965 -3.390925219706431e-05 -0.0013383850631361965 0.0006411084925191251" free_energy=-169.4040376707893 pbc="T T T"
C       -0.09032813       1.26224159      15.06576013        1        6       8.20073000      -2.49434000       0.36681100
C        0.66615730      -0.05721359      15.03057758        2        6       4.75372000       6.21744000      -0.51548500
C        2.21600992      -0.06608221      14.96879731        3        6      -8.95865000       5.68892000       0.27322100
C        2.74857557       1.19369194      15.00851449        4        6       5.61143000       1.82097000      -0.52845200
C        4.24282775       1.22692905      14.90290912        5        6      -0.61586500      -1.03171000       1.59982000
C        5.06340339       0.01529609      14.98474389        6        6     -17.48220000      -2.23732000      -0.40766200
C        6.29739289       0.09208119      15.07020966        7        6      17.66410000      -4.39233000       1.06803000
C        7.08893930       1.22036314      15.09100495        8        6      -3.00914000       2.91797000      -0.14883100
C       -0.09144453       3.68615585      14.93239556        9        6      11.71100000      -1.99709000       1.58854000
C        0.79623916       2.46209288      15.08686922       10        6     -13.25880000       0.51795400      -1.12784000
C        2.08859279       2.43500072      15.09469253       11        6       7.89504000       0.60307700      -0.70283400
C        2.85610472       3.64892951      15.00168890       12        6       0.89480000       1.68207000       0.96890000
C        4.33411488       3.66470406      15.00627815       13        6      -3.72302000       1.17267000       0.77004200
C        4.97085988       2.43223828      15.07391101       14        6       1.95802000       0.62150400      -1.28397000
C        6.42039746       2.47796988      15.07427703       15        6      -1.98059000      -1.48877000       0.44704900
C        7.14744025       3.67845342      15.02951032       16        6     -12.00780000       1.80777000      -1.24312000
C        0.02863361       6.16931823      14.96939074       17        6      -3.82652000      -6.91434000       1.35062000
C        0.61049167       4.87485823      15.02958434       18        6       6.51794000       3.72554000      -0.92746200
C        2.17002943       4.98206362      15.08466494       19        6      -1.75430000      -3.22146000      -1.43526000
C        2.92872851       6.22130064      14.95748499       20        6       0.07680450      -8.42066000       1.57961000
C        4.29957981       6.08052437      15.08638491       21        6      -1.06686000       9.19423000      -1.24956000
C        4.94920672       4.94272032      15.07329373       22        6       1.60277000      -5.54332000      -1.04007000
C        6.30549770       5.01328774      14.91936004       23        6       5.44568000      -8.17199000       2.15477000
C        7.16827973       6.05677682      15.08835205       24        6      -4.64827000       9.94321000      -1.55688000
