24
Lattice="8.52 0.0 0.0 0.0 7.378536 0.0 0.0 0.0 30.0" Properties=species:S:1:pos:R:3:id:I:1:type:I:1:forces:R:3 comment="# Graphene data 5.000000e+00 * 5.000000e+00" energy=-171.2190848630959 stress="-0.011368967126583182 0.008702273067640827 -8.003203037405762e-05 0.008702273067640827 -0.012045694946564277 -0.0005470876345146558 -8.003203037405762e-05 -0.0005470876345146558 0.0005129465241568397" free_energy=-171.2190848630959 pbc="T T T"
C        0.01167354       1.13245408      14.98297593        1        6      -6.59121000      10.54690000      -0.45299300
C        0.66032665       0.02104324      14.90614207        2        6       7.59912000      -6.33037000       1.21045000
C        2.11737385      -0.01791127      15.06794441        3        6      -2.62126000       5.74229000      -2.47001000
C        2.91648878       1.18278549      14.92581339        4        6      -7.90907000      -0.09723320       2.12320000
C        4.25423159       1.13744358      15.03531445        5        6       0.54837700       3.55976000      -0.69511100
C        4.88526772      -0.05969824      14.99583219        6        6       5.59579000      -0.39080900       0.33529700
C        6.34750162       0.07988685      14.94340568        7        6      -0.30083300      -5.87799000       0.23857000
C        7.03418214       1.27169974      14.94927040        8        6       6.51430000      -5.86014000       0.02059310
C       -0.04951670       3.66891387      14.98377038        9        6       9.91651000       0.68687000       0.29877200
C        0.69479822       2.43862300      14.98664098       10        6      -0.37801000      -1.59710000       0.39354000
C        2.10239764       2.38741691      15.01849461       11        6       3.04611000       1.30660000      -1.22856000
C        2.84713581       3.64075830      14.97619937       12        6      -0.07595820       1.42941000       0.65216300
C        4.33257694       3.59840506      14.94720962       13        6      -4.63916000       8.27673000       1.01292000
C        4.88364182       2.40387373      15.01902690       14        6       8.08435000      -4.52600000      -0.57660100
C        6.39812988       2.41550381      14.93681170       15        6      -5.16639000       5.24598000       0.92619900
C        7.17577876       3.59318818      14.98545203       16        6     -10.14830000       4.45797000      -0.59561100
C        0.06318953       6.15397233      14.90396358       17        6      -1.76407000       0.09092270       0.27745000
C        0.74004808       4.94369663      15.00959438       18        6      -5.93573000      -3.50058000      -0.31175600
C        2.07034010       4.89619944      15.06332161       19        6       6.43479000       0.74022700      -1.41342000
C        2.75649077       6.21271753      14.94040185       20        6       5.62924000     -10.20740000       2.06368000
C        4.28029839       6.05076249      15.04007290       21        6      -6.73797000       7.85566000      -0.95095800
C        5.06800543       5.01045387      15.05252005       22        6      -1.49364000     -10.49920000      -1.03418000
C        6.42943415       4.95306625      14.96672554       23        6       3.93954000      -2.73202000       0.59487700
C        7.18811910       6.15969315      14.94903342       24        6      -3.54656000       1.67957000      -0.41851200
