24
Lattice="8.52 0.0 0.0 0.0 7.378536 0.0 0.0 0.0 30.0" Properties=species:S:1:pos:R:3:id:I:1:type:I:1:forces:R:3 comment="# Graphene data 5.000000e+00 * 5.000000e+00" energy=-171.98074760418 stress="-0.008155147825271844 -0.0023393283676900883 -0.00035683361738196557 -0.0023393283676900883 -0.011549797924235768 0.00045287724697669286 -0.00035683361738196557 0.00045287724697669286 0.0003757727437625624" free_energy=-171.98074760418 pbc="T T T"
C       -0.02503408       1.27085132      15.05717230        1        6       7.23758000      -0.05922100      -0.33752900
C        0.63916516       0.04633295      15.06913436        2        6       5.44020000      -1.31397000      -0.89192000
C        2.16658778       0.00130822      14.97666303        3        6      -2.46732000      -3.00249000       0.28743500
C        2.89360697       1.18373722      15.03713653        4        6       0.83473300       2.68268000      -1.17052000
C        4.33197396       1.23993452      14.93559532        5        6      -5.70747000       0.19381900       1.02632000
C        4.94121619       0.07054770      15.03396575        6        6       2.60106000      -8.29977000       0.29734600
C        6.36689730      -0.03615678      15.04496745        7        6      -0.43147400       4.31411000      -0.54801200
C        7.19130205       1.14755319      15.01709913        8        6      -9.59336000       4.34891000       0.26115800
C        0.03034822       3.73942104      15.08889428        9        6      -4.68517000      -7.86186000      -1.31765000
C        0.80323298       2.47579370      14.98825531       10        6      -7.51946000      -0.57915000       1.43522000
C        2.14707580       2.39819452      14.99397899       11        6       3.45908000       3.83535000      -0.56946400
C        2.79208235       3.76929896      14.90083790       12        6       0.84269700      -7.61224000       1.26014000
C        4.21287639       3.59190890      14.97955814       13        6       2.13754000       5.56884000       0.01508470
C        5.01458712       2.39973634      14.98231434       14        6       0.49999200       4.08856000      -0.44161400
C        6.43989640       2.46387764      14.99134036       15        6      -2.72605000      -7.38647000       0.03382890
C        7.04146046       3.63905108      15.00079714       16        6       4.23995000       7.86562000       0.65782500
C       -0.02146242       6.18599994      14.95986788       17        6      -2.75538000      -1.81269000      -0.06761220
C        0.62014757       4.89496894      14.94082791       18        6       6.08407000       8.32990000       0.54972800
C        2.10205000       4.96674976      14.96123583       19        6      -4.70109000      -4.74815000      -1.24409000
C        2.85102834       6.05191552      14.90037906       20        6      -1.21396000       8.85337000       1.40830000
C        4.21262167       6.09726054      15.07763085       21        6      -0.49535700       8.26451000      -0.95731900
C        4.89069800       4.98209295      15.05777296       22        6       3.48394000      -9.54677000      -0.28724100
C        6.29278654       4.97784264      14.98865551       23        6       2.17077000      -3.67122000      -0.03407100
C        7.02741326       6.16665626      14.93511350       24        6       3.26448000      -2.45166000       0.63466000
