24
Lattice="8.52 0.0 0.0 0.0 7.378536 0.0 0.0 0.0 30.0" Properties=species:S:1:pos:R:3:id:I:1:type:I:1:forces:R:3 comment="# Graphene data 5.000000e+00 * 5.000000e+00" energy=-170.0944054207243 stress="-0.012385324796796767 -0.00632184703751883 0.0007848082478103934 -0.00632184703751883 -0.014356873057961751 0.0007491558778181749 0.0007848082478103934 0.0007491558778181749 0.0007434988654918432" free_energy=-170.0944054207243 pbc="T T T"
C       -0.05229976       1.22356280      15.04923556        1        6       1.96339000      -0.88999800      -2.65646000
C        0.72842504      -0.09070278      14.90751531        2        6       2.62861000      12.89090000       2.10246000
C        2.15893875       0.08840368      15.09309973        3        6      -0.50013500      -5.10595000      -1.18575000
C        2.85814245       1.32699775      15.06498055        4        6       3.05692000      -3.27740000       0.29689100
C        4.31624419       1.29199488      15.00620810        5        6      -4.51531000      -9.42627000       0.27490600
C        5.06948196       0.02783308      15.00322731        6        6      -7.41582000       0.17590000       0.49689400
C        6.42967551       0.05402979      14.95005989        7        6      -3.21682000       0.03516720      -0.57685100
C        7.00555177       1.27440595      14.94253400        8        6       7.61780000      -0.19055900       1.07396000
C       -0.09887120       3.75498120      15.05692603        9        6       8.52180000      -1.24327000      -1.14798000
C        0.76305653       2.42359666      14.90724955       10        6      -3.31764000       2.74463000       2.56442000
C        2.19349839       2.52091050      15.05583347       11        6      -7.64896000      -8.18292000      -1.04054000
C        2.77540143       3.64703026      14.99397672       12        6       7.22655000       8.29947000       0.05527440
C        4.22270157       3.71139370      15.03860012       13        6       0.97730100      -2.30507000      -1.03837000
C        5.01415511       2.36778083      15.00998685       14        6       0.55730900      13.58060000       0.37622200
C        6.39120483       2.48818611      15.01764161       15        6      -0.63455600       0.68182400      -0.31644800
C        7.06945454       3.72180592      15.06157024       16        6      -0.51856500      -3.49768000       0.35413400
C        0.02721020       6.21148705      14.96276749       17        6      -4.90622000      -8.45700000      -0.56872200
C        0.79893037       4.99652865      15.02212701       18        6     -10.23000000      -2.25398000      -0.16762200
C        2.11055675       4.85330030      14.95237768       19        6       5.31433000       2.80738000       1.00665000
C        2.91145172       6.05005294      15.08324761       20        6      -8.87157000       5.16245000      -0.29694200
C        4.20581333       6.20959115      15.06653339       21        6      10.68090000      -2.02353000      -1.24752000
C        4.93739338       4.95588188      14.93624549       22        6       1.78940000      -0.78597500       2.09518000
C        6.42399057       4.88764299      15.07252497       23        6      -5.43226000       7.15175000      -2.07396000
C        7.02203021       6.23267158      14.90596694       24        6       6.87355000      -5.89053000       1.62017000
