24
Lattice="8.52 0.0 0.0 0.0 7.378536 0.0 0.0 0.0 30.0" Properties=species:S:1:pos:R:3:id:I:1:type:I:1:forces:R:3 comment="# Graphene data 5.000000e+00 * 5.000000e+00" energy=-170.1628423609917 stress="-0.017472120546911298 -0.0023026987383754976 0.0019851544305681777 -0.0023026987383754976 -0.008738386521504066 -0.0006849637627165168 0.0019851544305681777 -0.0006849637627165168 0.0009110665850751347" free_energy=-170.1628423609917 pbc="T T T"
C        0.02363789       1.29567317      14.99336130        1        6      -1.67347000      -4.87365000       0.76028600
C        0.78526540       0.08853840      15.04845234        2        6      -3.25716000      -3.45499000      -1.63942000
C        2.16667102      -0.05205219      14.90679205        3        6       1.46358000       5.45709000       1.89313000
C        2.93856726       1.21309718      15.04129228        4        6     -10.97840000       0.60491000      -1.52251000
C        4.24122175       1.21212341      15.00888523        5        6       8.62158000      -1.24438000       1.30452000
C        4.95171611      -0.08605751      15.09160438        6        6      -4.46536000       2.25914000      -0.48178800
C        6.29072689      -0.07192954      15.09778732        7        6       7.30547000       5.67865000      -1.52239000
C        7.07077127       1.32454710      14.97887642        8        6       1.85228000      -4.68766000       0.49284400
C        0.04864125       3.64283790      15.06709151        9        6      -0.75405400       2.33704000      -0.42902700
C        0.79766216       2.38918372      15.07258827       10        6     -11.72390000       6.25841000      -0.41376300
C        2.05118251       2.50465784      15.00873442       11        6      12.21410000      -8.43345000       0.79390800
C        2.76472315       3.60784689      15.02128227       12        6       3.64907000      10.05300000      -1.70436000
C        4.21840374       3.75323168      14.94287263       13        6       1.17951000      -4.50205000       0.91315500
C        5.00497058       2.43505650      15.06203986       14        6      -0.98866000       3.04024000      -1.78099000
C        6.44603602       2.55281001      14.92937454       15        6      -8.64632000      -9.44613000       0.73913200
C        7.07763389       3.65134467      14.90156374       16        6       8.13209000      11.34340000       2.16506000
C        0.06766335       6.18452670      14.99852895       17        6      -2.55011000       3.58208000       0.43863500
C        0.78275291       5.01126619      15.08373673       18        6      -8.07308000      -5.16423000      -0.60153500
C        2.07538613       4.95045491      14.90796353       19        6       8.35564000      -2.67713000       1.23238000
C        2.84152070       6.13673943      14.95722231       20        6       1.76995000      -2.54928000      -0.84998900
C        4.27077066       6.05414145      15.00595657       21        6      -4.79690000       8.30578000       0.04532510
C        4.96665647       4.96252942      14.91293141       22        6       4.89344000      -6.75229000       1.38535000
C        6.46824613       4.97655384      15.09502691       23        6      -2.83264000      -3.51499000      -3.34505000
C        7.13424188       6.20746468      14.94350690       24        6       1.30339000      -1.61954000       2.12709000
