24
Lattice="8.52 0.0 0.0 0.0 7.378536 0.0 0.0 0.0 30.0" Properties=species:S:1:pos:R:3:id:I:1:type:I:1:forces:R:3 comment="# Graphene data 5.000000e+00 * 5.000000e+00" energy=-170.0379402780876 stress="-0.01484358539851651 0.0023732079873890334 -0.0014776426806425386 0.0023732079873890334 -0.008386697035983045 0.0004960755055520011 -0.0014776426806425386 0.0004960755055520011 0.0009485554832746527" free_energy=-170.0379402780876 pbc="T T T"
C       -0.02839478       1.29315953      15.06090748        1        6      -0.77053000      -9.33612000      -1.65184000
C        0.66714747      -0.08192385      14.91708835        2        6       1.83863000       4.17457000       3.06206000
C        2.20627120      -0.06306149      15.04093145        3        6      -6.85624000       5.43527000      -2.44219000
C        2.84685396       1.32223342      14.90938262        4        6      -6.43163000      -6.01285000       1.64270000
C        4.16202648       1.18571168      14.99818254        5        6       7.95258000       0.68302900       0.65179200
C        4.87454673      -0.08819833      15.04963802        6        6       5.06698000       8.73937000      -0.91868300
C        6.34493631      -0.02514423      14.96769217        7        6       0.49716800       2.37771000       0.66416400
C        7.10292530       1.24005946      14.97528629        8        6      -3.01796000      -1.86501000       0.02359760
C        0.08365518       3.61464372      14.91299156        9        6      -4.87457000       3.19178000       1.97911000
C        0.71426981       2.36707736      14.95705599       10        6       3.33891000       7.31013000       0.30916400
C        2.09137587       2.51524815      14.99291622       11        6       3.81218000      -3.82615000      -1.02892000
C        2.93722898       3.64357656      14.97016731       12        6      -5.15438000       1.71116000      -0.04696890
C        4.31531404       3.59779700      14.90559312       13        6       0.29087800       5.48562000       1.63415000
C        4.94412931       2.38090951      15.06128768       14        6       1.83153000      -1.05836000      -1.88666000
C        6.35762390       2.41562429      14.93192214       15        6       0.32575500       0.36873000       2.13107000
C        7.09640324       3.62239148      15.09379636       16        6       3.02723000      -1.10060000      -2.62631000
C       -0.09803283       6.10502469      15.09813087       17        6      15.54350000       2.93537000      -1.18397000
C        0.71616783       4.98575883      15.04295506       18        6       0.50433400      -7.55549000      -0.28627900
C        2.16254072       4.83858619      14.99915404       19        6      -0.48265100       3.45906000      -0.37968000
C        2.79007542       6.10207425      14.90677989       20        6       7.17524000      -2.54754000       0.98587600
C        4.29868343       6.12967924      14.93330721       21        6      -8.49281000      -3.23616000       0.05299220
C        5.02062154       5.01325645      14.99610852       22        6       1.93074000      -9.89504000      -1.54972000
C        6.46084224       4.83274126      14.95174865       23        6      -1.88243000       7.55725000       1.33490000
C        7.18596334       6.23639853      14.99300705       24        6     -15.17240000      -6.99574000      -0.47034900
