24
Lattice="8.52 0.0 0.0 0.0 7.378536 0.0 0.0 0.0 30.0" Properties=species:S:1:pos:R:3:id:I:1:type:I:1:forces:R:3 comment="# Graphene data 5.000000e+00 * 5.000000e+00" energy=-168.4220885344922 stress="-0.015426980063110355 0.005301948465120072 -0.00029908732361005967 0.005301948465120072 -0.01668148141023929 0.00012459276182826424 -0.00029908732361005967 0.00012459276182826424 0.0007373261707461959" free_energy=-168.4220885344922 pbc="T T T"
C        0.06112006       1.25995145      15.06297049        1        6      -2.67261000      -8.17904000      -0.56759800
C        0.79882848       0.01526331      14.94753807        2        6     -10.93540000       3.21009000       1.01203000
C        2.06554426      -0.02377795      14.96644978        3        6      11.81870000       4.23079000      -0.63004700
C        2.78667845       1.31044114      14.95112189        4        6       8.18467000     -18.40750000      -0.06396090
C        4.19655316       1.26283616      15.00062311        5        6       5.43092000      -1.02065000      -0.32387200
C        5.06578058       0.01607907      14.97227456        6        6     -14.79880000       2.11453000       0.09604860
C        6.31712218      -0.05387115      14.97781213        7        6      15.22150000       4.82895000       1.09780000
C        7.18429822       1.14185924      15.03862737        8        6      -4.19016000       2.81749000      -1.14627000
C       -0.08064929       3.76874278      14.97384508        9        6       3.97588000      -3.30125000       2.09397000
C        0.65547475       2.42859833      15.07540668       10        6       6.15256000       7.84596000      -1.03373000
C        2.19693391       2.37907311      15.00303087       11        6     -12.73910000      17.33430000       1.56767000
C        2.82074282       3.67232300      15.07164634       12        6       2.52328000      -3.19283000      -2.17700000
C        4.29541483       3.61726776      14.95446145       13        6      -4.70702000       8.44203000       1.91420000
C        5.02901087       2.52399494      15.01405314       14        6       1.03690000      -8.77673000      -1.18976000
C        6.48603226       2.44289791      14.92024192       15        6      -6.94777000      -8.43995000       1.57963000
C        7.03987357       3.59510983      14.99924990       16        6       5.83925000      13.04550000      -1.46192000
C        0.09979886       6.22257621      15.02426952       17        6      -5.06968000      -0.32975300       0.50425700
C        0.73273698       5.00359625      15.09562120       18        6      -3.10309000      -5.58016000      -2.00908000
C        2.09219582       4.83835234      14.90486517       19        6       1.76157000       4.59219000       2.13026000
C        2.74114954       6.15105512      14.94364957       20        6       6.06843000      -1.70456000      -0.32546600
C        4.33928129       6.19370980      15.00148219       21        6      -6.73271000      -0.75725200       0.01225730
C        4.89283600       4.91820012      15.05958681       22        6       5.98045000      -0.38597700      -1.96772000
C        6.44608778       4.96338478      14.91807885       23        6      -3.37599000      -3.24394000       2.28707000
C        7.13639278       6.23056200      15.05217861       24        6       1.27814000      -5.14214000      -1.39876000
