24
Lattice="8.52 0.0 0.0 0.0 7.378536 0.0 0.0 0.0 30.0" Properties=species:S:1:pos:R:3:id:I:1:type:I:1:forces:R:3 comment="# Graphene data 5.000000e+00 * 5.000000e+00" energy=-171.1756246809454 stress="-0.005988778624061224 -0.0033688387466272143 -0.000477012492095655 -0.0033688387466272143 -0.015327938538679841 -0.000956991066663256 -0.000477012492095655 -0.000956991066663256 0.0005544909763341145" free_energy=-171.1756246809454 pbc="T T T"
C        0.02522449       1.32226309      14.91134725        1        6      -4.59982000     -10.81050000       0.12152200
C        0.71437751       0.01596608      14.95603519        2        6       2.07568000       3.27425000       0.07358530
C        2.19982233       0.09600974      15.04006950        3        6      -4.36818000      -6.22758000      -1.64226000
C        2.87092181       1.24900565      14.95400191        4        6      -3.49963000       4.66471000       0.72154100
C        4.22778891       1.25463724      15.09097667        5        6       3.19554000       1.88014000      -1.54036000
C        4.88115526      -0.00055354      15.01079275        6        6       4.07188000      -0.87990900       0.05539790
C        6.45068298      -0.02748242      14.95734637        7        6      -6.71356000      -1.41784000       1.01844000
C        7.11392106       1.16367323      14.92962730        8        6       0.27790600       6.32675000      -0.48121200
C        0.02450884       3.66377628      15.03533671        9        6      -1.00229000       5.52241000      -0.79182600
C        0.62116274       2.46464498      14.90040989       10        6       8.03313000       4.81317000       0.57019400
C        2.06289001       2.49889310      14.91931455       11        6       2.91160000      -3.80592000       0.11369900
C        2.93916524       3.59185547      15.02909492       12        6      -5.90696000       8.46786000       0.20004100
C        4.32364448       3.77072924      15.06471869       13        6      -1.02592000      -0.55680100      -0.86557200
C        4.92935109       2.55118519      14.97918851       14        6       4.08121000      -4.22179000       0.74471300
C        6.36759729       2.52084475      14.90488384       15        6       1.33285000      -2.50202000       1.02418000
C        7.16243285       3.73093008      15.04577265       16        6      -3.66378000      -1.48064000      -1.33423000
C        0.02164711       6.17536137      14.91142340       17        6      -4.82003000       0.14604700       1.21494000
C        0.66933794       4.97351765      14.94823550       18        6       2.13837000      -4.13467000       0.88703700
C        2.07443262       4.99205053      15.04081977       19        6       3.59971000      -2.36781000      -1.15854000
C        2.86297395       6.19367735      14.91413315       20        6      -4.39938000      -0.81731000       1.72585000
C        4.20793260       6.07317583      14.96324725       21        6       2.96583000       7.67302000      -0.26853800
C        5.02428485       5.01435510      14.97758074       22        6       0.46420100      -6.74095000       0.03627230
C        6.45205348       4.95383610      14.94068391       23        6      -7.43631000      -9.90134000       1.05705000
C        7.01098570       6.06927333      15.04240577       24        6      12.28800000      13.09670000      -1.48192000
