24
Lattice="8.52 0.0 0.0 0.0 7.378536 0.0 0.0 0.0 30.0" Properties=species:S:1:pos:R:3:id:I:1:type:I:1:forces:R:3 comment="# Graphene data 5.000000e+00 * 5.000000e+00" energy=-168.0321776944116 stress="-0.021306474072275552 -0.0006727012747215172 -0.0002781387578944915 -0.0006727012747215172 -0.012822458149028765 0.0009433750166542313 -0.0002781387578944915 0.0009433750166542313 0.00043785324646933267" free_energy=-168.0321776944116 pbc="T T T"
C        0.02536044       1.15714904      15.03191850        1        6      -2.02711000       9.30286000      -0.76729500
C        0.79717648       0.07893400      15.05217581        2        6     -14.45360000      -8.05727000      -0.22945900
C        2.04694368       0.02212932      15.09268936        3        6      16.17020000      -2.17922000      -0.20139100
C        2.90217067       1.22664831      15.08061571        4        6     -14.83100000      -0.60691100      -0.06718640
C        4.16372211       1.16632329      14.95799232        5        6      12.17660000       5.50905000      -0.55299500
C        5.00839398       0.07895587      14.91803336        6        6      -0.07496150      -3.44918000       1.57455000
C        6.48028686       0.09613507      15.03656329        7        6      -6.86968000      -4.48250000      -1.35912000
C        7.06636408       1.32744338      15.02750677        8        6       7.93987000      -5.17060000      -0.01127450
C       -0.05440396       3.61162808      14.92137007        9        6       4.96895000       1.68175000       0.16392300
C        0.78774666       2.41364520      14.90254659       10        6     -15.71260000      -0.51666500       0.54728800
C        2.03878606       2.46166273      14.97617404       11        6      15.67020000      -2.67033000       0.36207700
C        2.84102200       3.59798200      14.92994167       12        6       0.18551800       7.26114000       2.18039000
C        4.34417262       3.74373961      15.08315081       13        6      -8.95923000      -4.81072000      -1.51774000
C        4.89605216       2.47639927      14.96707004       14        6       5.52808000      -2.18382000       0.16811000
C        6.46084982       2.49920891      14.94654302       15        6      -9.99168000      -2.24539000       0.51903400
C        7.08378454       3.64923852      15.04034443       16        6       1.17137000       6.94206000      -0.97347200
C       -0.07451919       6.15412626      14.98544970       17        6       4.60316000      -1.42754000      -0.23782400
C        0.75839985       4.86395166      14.93847858       18        6     -10.33480000       1.59760000       0.47341500
C        2.06487668       4.97450199      15.05846943       19        6       5.34240000      -9.45036000      -1.60745000
C        2.80491986       6.06135048      15.01229710       20        6       3.45369000      10.39020000       1.36953000
C        4.31271776       6.17969783      15.06179633       21        6      -4.97234000       2.61135000      -1.23281000
C        4.87149985       4.96363731      15.07999316       22        6       9.50222000      -0.73128500       0.17279100
C        6.36109301       4.93287734      15.02026723       23        6      -2.88886000      -3.80515000       0.43461200
C        7.01214986       6.10702255      14.96634594       24        6       4.40350000       6.49092000       0.79229500
