4
Lattice="4.2600002 0.0 0.0 0.0 2.4768 0.0 0.0 0.0 30.0" Properties=species:S:1:pos:R:3:id:I:1:type:I:1:forces:R:3 comment="# Graphene data" energy=-28.62414233140582 stress="-0.004026668390123139 0.006233971531349905 0.0015870324030383342 0.006233971531349905 -0.010263625936431365 -0.005866971850221739 0.0015870324030383342 -0.005866971850221739 0.0008640089766045835" free_energy=-28.62414233140582 pbc="T T T"
C        0.07943047       1.14867105      15.05742838        1        6      -2.69721000       9.23679000      -1.02972000
C        0.74600671       0.03517192      14.91567576        2        6       4.46859000      -9.04163000       1.01278000
C        2.20056296       0.02317508      14.92025658        3        6      -0.91384300      -4.39973000       0.99480000
C        2.92834614       1.17784818      15.05074728        4        6      -0.85754100       4.20457000      -0.97785500
