4
Lattice="4.2600002 0.0 0.0 0.0 2.4768 0.0 0.0 0.0 30.0" Properties=species:S:1:pos:R:3:id:I:1:type:I:1:forces:R:3 comment="# Graphene data" energy=-28.17593631514138 stress="0.004746343917352484 -0.008803941918378267 0.0029062648323608395 -0.008803941918378267 -0.02572200486423055 0.002851234457327226 0.0029062648323608395 0.002851234457327226 0.0020899306772907433" free_energy=-28.17593631514138 pbc="T T T"
C        0.06256043       1.21573675      15.08641853        1        6      -6.69593000      -6.89440000      -2.44274000
C        0.61588116      -0.08466620      15.01421217        2        6      10.03640000       7.06728000       1.93105000
C        2.21453550      -0.02678207      15.07435012        3        6      -4.73486000      -2.50692000      -2.54231000
C        2.87780217       1.18401527      14.90541527        4        6       1.39435000       2.33403000       3.05400000
