4
Lattice="4.2600002 0.0 0.0 0.0 2.4768 0.0 0.0 0.0 30.0" Properties=species:S:1:pos:R:3:id:I:1:type:I:1:forces:R:3 comment="# Graphene data" energy=-27.62898671981215 stress="-0.009492165859784015 -0.0025551855808817305 -0.00018388616618694704 -0.0025551855808817305 -0.034065908030852896 0.0021223321900694734 -0.00018388616618694704 0.0021223321900694734 0.0004058117140719392" free_energy=-27.62898671981215 pbc="T T T"
C        0.01039038       1.28099145      15.06696530        1        6      -4.25457000     -12.35830000      -1.12579000
C        0.62625980      -0.09153485      15.00481242        2        6       9.28725000      12.31140000       0.37051800
C        2.17381626      -0.09989014      14.93904529        3        6      -5.85554000       9.84868000      -0.11342700
C        2.88155616       1.28800914      14.92890387        4        6       0.82285900      -9.80171000       0.86870300
