4
Lattice="4.2600002 0.0 0.0 0.0 2.4768 0.0 0.0 0.0 30.0" Properties=species:S:1:pos:R:3:id:I:1:type:I:1:forces:R:3 comment="# Graphene data" energy=-27.94996668177646 stress="-0.024696597650046684 -0.009297616746703418 0.0026130350783591244 -0.009297616746703418 -0.0031123741904055284 -0.0032277411082626164 0.0026130350783591244 -0.0032277411082626164 0.002072402214523905" free_energy=-27.94996668177646 pbc="T T T"
C       -0.07410470       1.17649203      14.95726657        1        6       9.46036000       2.36275000       2.41647000
C        0.78426492       0.01668195      15.06796532        2        6      -6.36796000      -2.54657000      -2.62353000
C        2.15784637       0.03107051      14.90957832        3        6      -1.28043000      -8.63440000       2.59708000
C        2.85433884       1.13811113      15.05840219        4        6      -1.81196000       8.81822000      -2.39002000
