4
Lattice="4.2600002 0.0 0.0 0.0 2.4768 0.0 0.0 0.0 30.0" Properties=species:S:1:pos:R:3:id:I:1:type:I:1:forces:R:3 comment="# Graphene data" energy=-28.77601994602565 stress="0.006271278706197459 0.011726462247074214 0.0014425582889571029 0.011726462247074214 -0.017809196387652184 -0.0016964161368828229 0.0014425582889571029 -0.0016964161368828229 0.00046767418054991785" free_energy=-28.77601994602565 pbc="T T T"
C        0.05692017       1.13124127      15.06357953        1        6      -4.08797000       5.16580000      -1.44919000
C        0.71325988      -0.05477233      14.97237513        2        6       3.41540000      -3.66917000       1.41290000
C        2.19104982      -0.06066858      15.02685609        3        6      -5.49000000       6.04500000      -0.87667500
C        2.80478605       1.24913397      15.00731529        4        6       6.16257000      -7.54163000       0.91296100
