4
Lattice="4.2600002 0.0 0.0 0.0 2.4768 0.0 0.0 0.0 30.0" Properties=species:S:1:pos:R:3:id:I:1:type:I:1:forces:R:3 comment="# Graphene data" energy=-28.64341003536932 stress="-0.0013209942391318279 0.014929018513140584 -0.0009686738793708929 0.014929018513140584 -0.012768153261621942 0.0016067607429442988 -0.0009686738793708929 0.0016067607429442988 0.0001549077339065152" free_energy=-28.64341003536932 pbc="T T T"
C        0.00702291       1.19588965      15.06547815        1        6       0.77161400       4.19012000       0.31887900
C        0.78257563       0.01958813      15.06670733        2        6      -2.66789000      -2.92759000      -0.45059000
C        2.19793270      -0.00327372      15.01621741        3        6      -5.16932000       8.67409000       0.86736400
C        2.79625933       1.32876887      15.07329827        4        6       7.06560000      -9.93662000      -0.73565300
