4
Lattice="4.2600002 0.0 0.0 0.0 2.4768 0.0 0.0 0.0 30.0" Properties=species:S:1:pos:R:3:id:I:1:type:I:1:forces:R:3 comment="# Graphene data" energy=-28.66018615347539 stress="-0.004366521814460487 0.013111819904461685 -0.0005795949767080439 0.013111819904461685 -0.011414402080058957 -0.0006111902812169684 -0.0005795949767080439 -0.0006111902812169684 8.687560394789703e-05" free_energy=-28.66018615347539 pbc="T T T"
C        0.01404544       1.22671156      14.99539880        1        6      -1.83568000       3.59933000      -0.49665600
C        0.76452600       0.05353975      14.95637419        2        6      -3.79902000      -4.47115000       0.66122700
C        2.14258388      -0.04138101      15.00389142        3        6      -2.37572000       8.20295000      -0.35296600
C        2.74308098       1.27415851      15.00231264        4        6       8.01042000      -7.33113000       0.18839500
