4
Lattice="4.2600002 0.0 0.0 0.0 2.4768 0.0 0.0 0.0 30.0" Properties=species:S:1:pos:R:3:id:I:1:type:I:1:forces:R:3 comment="# Graphene data" energy=-28.92954552604047 stress="-0.008965056777328785 0.008443976479698499 -0.00019085369052121727 0.008443976479698499 -0.0007443471136903935 -0.0003962125915792465 -0.00019085369052121727 -0.0003962125915792465 0.0001947237893082397" free_energy=-28.92954552604047 pbc="T T T"
C       -0.00731644       1.21008588      14.91992460        1        6      -0.18513700       0.16390000       0.98495000
C        0.66922803      -0.04308142      14.98693100        2        6       0.74740200       1.09864000      -0.88574400
C        2.07214708      -0.04744260      14.97619546        3        6       1.96180000       6.12518000       0.09901390
C        2.85999596       1.32513866      14.95956739        4        6      -2.52406000      -7.38772000      -0.19822100
