4
Lattice="4.2600002 0.0 0.0 0.0 2.4768 0.0 0.0 0.0 30.0" Properties=species:S:1:pos:R:3:id:I:1:type:I:1:forces:R:3 comment="# Graphene data" energy=-28.7661668557909 stress="5.121323730049544e-06 0.005168970177944728 0.002541447329108084 0.005168970177944728 -0.009019760508748349 0.0015858085173205588 0.002541447329108084 0.0015858085173205588 0.0005434670368835093" free_energy=-28.7661668557909 pbc="T T T"
C        0.09130311       1.29297303      15.08350560        1        6      -6.04898000       0.02219070      -0.95494000
C        0.68420923       0.05557087      15.00698341        2        6       3.47467000      -1.35633000       0.35546700
C        2.08557810      -0.04206384      14.91459426        3        6       3.78574000       5.77640000       1.10825000
C        2.88704122       1.30154210      15.00022678        4        6      -1.21142000      -4.44226000      -0.50877100
