4
Lattice="4.2600002 0.0 0.0 0.0 2.4768 0.0 0.0 0.0 30.0" Properties=species:S:1:pos:R:3:id:I:1:type:I:1:forces:R:3 comment="# Graphene data" energy=-29.34938901254871 stress="0.004183750072563889 0.003864237568778164 -1.5579878603071805e-05 0.003864237568778164 -0.0030280794810569763 -0.000558901590500514 -1.5579878603071805e-05 -0.000558901590500514 0.0002521320864749751" free_energy=-29.34938901254871 pbc="T T T"
C       -0.01911010       1.22523261      15.01886629        1        6      -0.96605700       3.18901000       0.25139400
C        0.66567469       0.04072751      14.99545257        2        6       2.64144000      -4.19668000       0.10005300
C        2.14054365      -0.02254358      15.02057617        3        6      -2.64952000      -0.06840590       0.72373200
C        2.81504298       1.20476169      15.09206669        4        6       0.97414500       1.07607000      -1.07518000
