4
Lattice="4.2600002 0.0 0.0 0.0 2.4768 0.0 0.0 0.0 30.0" Properties=species:S:1:pos:R:3:id:I:1:type:I:1:forces:R:3 comment="# Graphene data" energy=-28.91202102104842 stress="0.006116406759810199 0.00012219492775393442 0.0008872463749465873 0.00012219492775393442 -0.013419788159806838 0.0010716077330178704 0.0008872463749465873 0.0010716077330178704 0.00021520716301804316" free_energy=-28.91202102104842 pbc="T T T"
C       -0.00900963       1.26447396      15.03719980        1        6       0.57213500       3.00652000      -0.06762880
C        0.74787533       0.09511042      15.07227257        2        6       0.06804630      -4.23168000      -0.49326200
C        2.22517814       0.03517770      15.00895496        3        6      -7.14360000      -2.14576000      -0.19406700
C        2.79463487       1.24368331      14.96262347        4        6       6.50342000       3.37093000       0.75495700
