4
Lattice="4.2600002 0.0 0.0 0.0 2.4768 0.0 0.0 0.0 30.0" Properties=species:S:1:pos:R:3:id:I:1:type:I:1:forces:R:3 comment="# Graphene data" energy=-27.85249368692297 stress="-0.03833297681117595 -0.015398668940175957 0.004304602768403787 -0.015398668940175957 0.0003843027825534187 0.0005601572868379902 0.004304602768403787 0.0005601572868379902 0.0003587992460666148" free_energy=-27.85249368692297 pbc="T T T"
C        0.08429980       1.23425289      15.05659008        1        6      -4.19976000      -3.61732000      -1.40951000
C        0.80404026      -0.05784767      14.97990267        2        6     -12.27220000       3.62305000       1.21473000
C        2.06694737       0.00871410      14.91176441        3        6      10.45540000      -7.33174000      -0.37770900
C        2.76642308       1.14228263      14.92537376        4        6       6.01653000       7.32600000       0.57248900
