4
Lattice="4.2600002 0.0 0.0 0.0 2.4768 0.0 0.0 0.0 30.0" Properties=species:S:1:pos:R:3:id:I:1:type:I:1:forces:R:3 comment="# Graphene data" energy=-28.688709401697 stress="0.001218171144675121 0.009496206236010326 -0.0024988906135240936 0.009496206236010326 -0.014130974144265382 0.0024207903155453038 -0.0024988906135240936 0.0024207903155453038 0.0010815023801354086" free_energy=-28.688709401697 pbc="T T T"
C       -0.01144895       1.16904264      14.91165326        1        6      -4.31155000       8.91438000       1.93775000
C        0.68454267       0.04944471      14.98746736        2        6       2.17533000      -7.86832000      -1.26098000
C        2.11798933       0.02927192      14.98391480        3        6      -3.07933000      -0.00510317       1.51061000
C        2.74265171       1.26629077      15.07435571        4        6       5.21555000      -1.04096000      -2.18738000
