4
Lattice="4.2600002 0.0 0.0 0.0 2.4768 0.0 0.0 0.0 30.0" Properties=species:S:1:pos:R:3:id:I:1:type:I:1:forces:R:3 comment="# Graphene data" energy=-27.57851416919265 stress="-0.010374840392291 0.022953189349512095 0.0022523798793555603 0.022953189349512095 -0.02878632042535128 -0.00546018370796997 0.0022523798793555603 -0.00546018370796997 0.0004742828273463461" free_energy=-27.57851416919265 pbc="T T T"
C        0.06545391       1.14778943      15.07588289        1        6      -8.05840000      17.59880000      -1.17323000
C        0.68983840       0.09695250      14.97442750        2        6      10.30380000     -18.83470000       0.50411300
C        2.15863046      -0.03873598      14.92741301        3        6       0.28581600      -1.27453000      -0.28761600
C        2.92155484       1.14947278      14.92779042        4        6      -2.53121000       2.51039000       0.95673000
