4
Lattice="4.2600002 0.0 0.0 0.0 2.4768 0.0 0.0 0.0 30.0" Properties=species:S:1:pos:R:3:id:I:1:type:I:1:forces:R:3 comment="# Graphene data" energy=-28.48160450853138 stress="-0.014815547010212097 0.007794878103610093 -0.00021505080436436369 0.007794878103610093 -0.006660253476434556 -0.0011759134375774047 -0.00021505080436436369 -0.0011759134375774047 0.00023610921006889555" free_energy=-28.48160450853138 pbc="T T T"
C       -0.05306002       1.13973315      14.91996055        1        6       3.56373000       7.73109000       0.24988200
C        0.77125351       0.07632227      14.90217352        2        6      -3.55149000      -8.36673000       0.03577440
C        2.15208669      -0.01555338      14.93728090        3        6      -0.08851120      -2.53262000       0.74591600
C        2.82732809       1.17315918      15.00431727        4        6       0.07626870       3.16827000      -1.03157000
