4
Lattice="4.2600002 0.0 0.0 0.0 2.4768 0.0 0.0 0.0 30.0" Properties=species:S:1:pos:R:3:id:I:1:type:I:1:forces:R:3 comment="# Graphene data" energy=-27.60373427556952 stress="-0.006795651007912148 -0.026073321992632178 -0.0011681501544771305 -0.026073321992632178 -0.030522391462366627 -0.004232202057986508 -0.0011681501544771305 -0.004232202057986508 0.0005914081106847591" free_energy=-27.60373427556952 pbc="T T T"
C       -0.08686206       1.23701815      14.95644703        1        6       3.55758000      -2.04587000       1.63856000
C        0.69582048      -0.02729304      15.02095073        2        6      -1.05156000       1.76794000      -1.23944000
C        2.17576539       0.06385201      15.01195303        3        6     -11.24190000     -18.05430000       0.89000300
C        2.76122309       1.13752123      15.07796666        4        6       8.73591000      18.33220000      -1.28912000
