4
Lattice="4.2600002 0.0 0.0 0.0 2.4768 0.0 0.0 0.0 30.0" Properties=species:S:1:pos:R:3:id:I:1:type:I:1:forces:R:3 comment="# Graphene data" energy=-28.62067060811779 stress="-0.018979562153275842 0.005510255158979651 0.00015030398219432196 0.005510255158979651 0.0033728703042485773 -0.0020693095127054264 0.00015030398219432196 -0.0020693095127054264 0.0011959799969061963" free_energy=-28.62067060811779 pbc="T T T"
C       -0.09411870       1.19529278      15.04004821        1        6       6.53071000       6.08440000      -2.00280000
C        0.64459631       0.06183650      14.90368222        2        6       2.29548000      -5.45419000       2.40376000
C        2.11857410       0.07304898      15.04359771        3        6      -1.68427000      -2.71232000      -1.58868000
C        2.85129744       1.26346866      15.00204341        4        6      -7.14192000       2.08211000       1.18772000
