4
Lattice="4.2600002 0.0 0.0 0.0 2.4768 0.0 0.0 0.0 30.0" Properties=species:S:1:pos:R:3:id:I:1:type:I:1:forces:R:3 comment="# Graphene data" energy=-28.96551079830272 stress="0.002216138999802022 -0.002141612940510682 -0.0005398241576849205 -0.002141612940510682 -0.008797430331645213 -0.0003059824530352596 -0.0005398241576849205 -0.0003059824530352596 0.00023221369579924032" free_energy=-28.96551079830272 pbc="T T T"
C        0.08758765       1.22210477      14.95800075        1        6      -6.77261000      -2.19247000       0.72338200
C        0.70087951      -0.05783458      14.98961169        2        6       3.30637000       5.17336000      -0.87212000
C        2.11989920       0.05076455      14.92882734        3        6       0.03654880       0.16548700       1.00056000
C        2.81509602       1.31889087      14.97765913        4        6       3.42969000      -3.14638000      -0.85182300
