4
Lattice="4.2600002 0.0 0.0 0.0 2.4768 0.0 0.0 0.0 30.0" Properties=species:S:1:pos:R:3:id:I:1:type:I:1:forces:R:3 comment="# Graphene data" energy=-28.99545551184054 stress="-0.00220072914508355 0.00839202034721729 0.00026234145580773143 0.00839202034721729 -0.0034466904510250425 -0.0028216945288687535 0.00026234145580773143 -0.0028216945288687535 0.0008176761843878387" free_energy=-28.99545551184054 pbc="T T T"
C       -0.00889923       1.15784372      14.95059714        1        6      -1.93535000       0.77132900      -0.77644800
C        0.65883726      -0.08500738      14.94877064        2        6       1.39691000       0.36347500       0.89694800
C        2.08020769      -0.09320492      15.04187512        3        6      -0.42238800       6.25771000      -1.94516000
C        2.81337098       1.26055413      14.90695329        4        6       0.96082500      -7.39252000       1.82466000
