4
Lattice="4.2600002 0.0 0.0 0.0 2.4768 0.0 0.0 0.0 30.0" Properties=species:S:1:pos:R:3:id:I:1:type:I:1:forces:R:3 comment="# Graphene data" energy=-28.29728071287167 stress="-0.0287037486917619 0.00760514585279105 0.0014760045337264942 0.00760514585279105 0.005441797985019621 0.002600197907195745 0.0014760045337264942 0.002600197907195745 0.0005997575679753127" free_energy=-28.29728071287167 pbc="T T T"
C       -0.08874944       1.31003369      14.94739278        1        6      10.46410000      -2.20006000       0.06069020
C        0.75778943       0.01405186      14.91915419        2        6      -6.78601000       1.48641000      -0.10255900
C        2.11865064      -0.07845036      14.94158153        3        6       1.79160000       6.96111000       1.58977000
C        2.86067326       1.28004505      15.06594135        4        6      -5.46968000      -6.24746000      -1.54790000
