4
Lattice="4.2600002 0.0 0.0 0.0 2.4768 0.0 0.0 0.0 30.0" Properties=species:S:1:pos:R:3:id:I:1:type:I:1:forces:R:3 comment="# Graphene data" energy=-28.2012713794685 stress="-0.03602595463773922 0.001216665179596891 -0.0005458766586407398 0.001216665179596891 0.010245423321247425 -0.0010635865099379248 -0.0005458766586407398 -0.0010635865099379248 0.0009255873285066581" free_energy=-28.2012713794685 pbc="T T T"
C        0.03769307       1.18742647      14.91461100        1        6       0.12773300       2.66786000       1.16408000
C        0.80399915       0.01118256      14.93215298        2        6     -13.68790000      -2.97733000      -0.89002900
C        2.06278351      -0.02859181      14.95834837        3        6      15.10540000      -2.90959000       2.00187000
C        2.86500550       1.13782712      15.07495239        4        6      -1.54526000       3.21906000      -2.27592000
