4
Lattice="4.2600002 0.0 0.0 0.0 2.4768 0.0 0.0 0.0 30.0" Properties=species:S:1:pos:R:3:id:I:1:type:I:1:forces:R:3 comment="# Graphene data" energy=-29.10970489737605 stress="0.003270938505729791 -0.002870522022189761 0.0009895763642588941 -0.002870522022189761 -0.0071789950929600785 -0.0008284964022979976 0.0009895763642588941 -0.0008284964022979976 0.00018264634198267212" free_energy=-29.10970489737605 pbc="T T T"
C        0.04653342       1.26114416      15.07659484        1        6      -5.52341000       1.38066000      -0.61208400
C        0.65041330       0.03780002      15.01441265        2        6       3.64127000      -0.56824400       0.64412600
C        2.07391344       0.09505242      15.02390012        3        6       1.64064000      -4.40795000       0.34780200
C        2.83171771       1.25807175      15.07510350        4        6       0.24149800       3.59553000      -0.37984300
