4
Lattice="4.2600002 0.0 0.0 0.0 2.4768 0.0 0.0 0.0 30.0" Properties=species:S:1:pos:R:3:id:I:1:type:I:1:forces:R:3 comment="# Graphene data" energy=-28.92995360150561 stress="0.00446486189415109 0.008650357942988778 0.0011230451721090456 0.008650357942988778 -0.014106774543734572 -0.0007587474617792214 0.0011230451721090456 -0.0007587474617792214 0.00027078871560989133" free_energy=-28.92995360150561 pbc="T T T"
C        0.07522952       1.21653459      14.97590040        1        6      -3.97200000       7.38065000      -0.49610600
C        0.70656449       0.06881297      14.94974486        2        6       6.21597000      -8.37636000       0.90428900
C        2.22292828      -0.01186383      15.03639323        3        6      -3.35675000       0.23347700      -1.13573000
C        2.89776779       1.21655007      14.98502909        4        6       1.11278000       0.76223500       0.72754700
