4
Lattice="4.2600002 0.0 0.0 0.0 2.4768 0.0 0.0 0.0 30.0" Properties=species:S:1:pos:R:3:id:I:1:type:I:1:forces:R:3 comment="# Graphene data" energy=-29.08957073266724 stress="-0.00469162911975532 -0.003937932591240854 0.0014218693658772305 -0.003937932591240854 8.642168012544102e-05 -0.000516289731262632 0.0014218693658772305 -0.000516289731262632 0.00029780724316475594" free_energy=-29.08957073266724 pbc="T T T"
C       -0.02174726       1.24403065      14.99061725        1        6       0.01348500      -0.03932440       0.51489000
C        0.75124169       0.01135158      15.01956059        2        6      -6.16363000      -0.23372000      -0.84556100
C        2.10302533       0.01395098      14.90238295        3        6       1.17920000      -3.29092000       1.07576000
C        2.74508149       1.21017907      14.95689534        4        6       4.97094000       3.56397000      -0.74508800
