4
Lattice="4.2600002 0.0 0.0 0.0 2.4768 0.0 0.0 0.0 30.0" Properties=species:S:1:pos:R:3:id:I:1:type:I:1:forces:R:3 comment="# Graphene data" energy=-28.7109539751686 stress="-0.012323060606997742 0.019161119760075375 0.0006202745869583832 0.019161119760075375 -0.002019970040747286 0.0009123178193000343 0.0006202745869583832 0.0009123178193000343 0.00043383031512730886" free_energy=-28.7109539751686 pbc="T T T"
C       -0.01136150       1.21684356      14.94005208        1        6       1.90858000       5.19253000       1.43812000
C        0.73625022       0.06465780      15.04223673        2        6      -0.53885500      -5.34323000      -1.34326000
C        2.15425840      -0.04972959      15.02349311        3        6      -2.33629000       8.91357000       0.18643700
C        2.85942005       1.31411684      14.99557522        4        6       0.96656500      -8.76286000      -0.28129000
