4
Lattice="4.2600002 0.0 0.0 0.0 2.4768 0.0 0.0 0.0 30.0" Properties=species:S:1:pos:R:3:id:I:1:type:I:1:forces:R:3 comment="# Graphene data" energy=-29.04218784683172 stress="-0.005169899806869302 0.0047173280428960546 -0.002254742641129558 0.0047173280428960546 0.00236650401985394 -8.404913870100146e-05 -0.002254742641129558 -8.404913870100146e-05 0.0007148012800507905" free_energy=-29.04218784683172 pbc="T T T"
C       -0.03725322       1.26116393      15.08125731        1        6       0.39037600       2.24577000      -0.99666900
C        0.61503464       0.06116589      15.06139590        2        6       3.40406000      -3.67828000       0.72409400
C        2.05800286      -0.03427269      15.05425623        3        6       2.50868000       1.36035000      -1.62634000
C        2.86103089       1.21619394      14.94655370        4        6      -6.30311000       0.07216110       1.89892000
