4
Lattice="4.2600002 0.0 0.0 0.0 2.4768 0.0 0.0 0.0 30.0" Properties=species:S:1:pos:R:3:id:I:1:type:I:1:forces:R:3 comment="# Graphene data" energy=-29.24203368390771 stress="-0.004915337829728987 0.005112870980284334 -0.0009933802830768986 0.005112870980284334 0.003810679528999246 -0.0002549467746631618 -0.0009933802830768986 -0.0002549467746631618 0.00032434331713066813" free_energy=-29.24203368390771 pbc="T T T"
C       -0.00294900       1.24829504      14.94883841        1        6       1.51148000       1.64675000       0.56452800
C        0.66289051       0.02740695      15.01504122        2        6       2.79421000      -1.29426000      -0.56831500
C        2.11563676       0.01263014      15.01694723        3        6       1.11497000       2.08900000      -0.83359100
C        2.89303603       1.29735096      14.93896588        4        6      -5.42066000      -2.44150000       0.83737800
