4
Lattice="4.2600002 0.0 0.0 0.0 2.4768 0.0 0.0 0.0 30.0" Properties=species:S:1:pos:R:3:id:I:1:type:I:1:forces:R:3 comment="# Graphene data" energy=-28.50820969817653 stress="0.0012140512991240977 -0.008656656083220218 0.0026651899036419825 -0.008656656083220218 -0.01617670491076096 0.00540631223695218 0.0026651899036419825 0.00540631223695218 0.0009065122583758738" free_energy=-28.50820969817653 pbc="T T T"
C        0.07293907       1.17839999      14.95219388        1        6      -3.50833000       1.56547000       0.33731400
C        0.75929477      -0.03434550      15.04918666        2        6      -0.52443200      -0.68837000      -0.27520100
C        2.17426791       0.03218462      15.09249435        3        6      -3.96355000      -9.83225000      -1.54262000
C        2.78433219       1.16566472      14.92259614        4        6       7.99631000       8.95514000       1.48051000
