(written by ASE) 

4 	 atoms 
1  atom types
0.0      4.2600002000000003  xlo xhi
0.0      2.4767999999999999  ylo yhi
0.0                      30  zlo zhi


Atoms 

     1   1    0.074102799999999996      1.2479207999999999      14.941099550000001
     2   1     0.65866933999999999   -0.085771299999999995             15.07288275
     3   1      2.0318748800000002   -0.036874799999999999             15.05964739
     4   1      2.9156637500000002              1.27367111      14.932552210000001
