LAMMPS (3 Mar 2020)
clear
dimension 3
boundary p p p
units metal
atom_style atomic
variable cutoff equal 6.5
read_data ${lmpdatafile}
read_data ./descriptors_graphene/lmpdatafile.20
  orthogonal box = (0 0 0) to (8.52 7.37854 30)
  1 by 1 by 1 MPI processor grid
  reading atoms ...
  24 atoms
  read_data CPU = 0.00681901 secs
mass * 1.0
log ${logfile}
log ./descriptors_graphene/log.20
