ITEM: TIMESTEP
0
ITEM: NUMBER OF ATOMS
54
ITEM: BOX BOUNDS xy xz yz pp pp pp
-2.6734297530652765e-02 1.9173955473260285e+01 1.7175047861629940e-07
0.0000000000000000e+00 1.0309426050837425e+01 -2.6734297530652765e-02
0.0000000000000000e+00 2.9999991152958270e+01 2.2047923872627226e-05
ITEM: ATOMS id type c_1[3] c_1[4] 
1 1      0.0002617672238       0.001868217552 
2 1      0.0002617825297       0.001870045681 
3 1      0.0002617805478       0.001868200669 
4 1      0.0002617556251         0.0018700645 
5 1      0.0002617439652        0.00186822605 
6 1      0.0002617535823       0.001870046932 
7 1      0.0002617941223       0.001868237721 
8 1      0.0002617988521       0.001870077542 
9 1       0.000261782674       0.001868285981 
10 1      0.0002617638871       0.001870083249 
11 1      0.0002617569446        0.00186825264 
12 1      0.0002617710014       0.001870094686 
13 1      0.0002617653311       0.001868272925 
14 1      0.0002617662266       0.001870076333 
15 1      0.0002617480142       0.001868247589 
16 1      0.0002617483094       0.001870069959 
17 1      0.0002617599733       0.001868244029 
18 1      0.0002617587821       0.001870042311 
19 2      0.0006250767245      1.233888536e-05 
20 2       0.001244008346       9.11378375e-06 
21 2       0.000627182889      1.233387869e-05 
22 2        0.00124212995      9.109176958e-06 
23 2      0.0006249874087      1.233784463e-05 
24 2       0.001243979736      9.112947833e-06 
25 2      0.0006271795934      1.233331598e-05 
26 2       0.001242086716      9.108230041e-06 
27 2      0.0006249943992      1.233800783e-05 
28 2       0.001243970612      9.113487643e-06 
29 2      0.0006271622627      1.233373476e-05 
30 2        0.00124210661       9.10850589e-06 
31 2      0.0006250440661      1.233853064e-05 
32 2       0.001244073404      9.113331345e-06 
33 2      0.0006271959235        1.2334018e-05 
34 2       0.001242106361      9.109100424e-06 
35 2      0.0006250195559      1.233834325e-05 
36 2       0.001244002749      9.113676069e-06 
37 2       0.000627209354      1.233381574e-05 
38 2       0.001242075912       9.10838747e-06 
39 2      0.0006250248526       1.23382992e-05 
40 2       0.001244036235       9.11365975e-06 
41 2      0.0006271599017      1.233337812e-05 
42 2       0.001242093025      9.108769607e-06 
43 2      0.0006250105143      1.233821074e-05 
44 2       0.001244058663      9.113550804e-06 
45 2      0.0006271493379      1.233422382e-05 
46 2        0.00124207813      9.109296513e-06 
47 2      0.0006249789116       1.23381316e-05 
48 2       0.001244062002      9.113223215e-06 
49 2      0.0006271394096      1.233387265e-05 
50 2       0.001242115222      9.108054924e-06 
51 2      0.0006249842915      1.233833764e-05 
52 2       0.001244101536      9.113412647e-06 
53 2      0.0006271424986      1.233282482e-05 
54 2       0.001242059246        9.1087594e-06 
