4
Lattice="4.2600002 0.0 0.0 0.0 2.4768 0.0 0.0 0.0 30.0" Properties=species:S:1:pos:R:3:id:I:1:type:I:1:forces:R:3 comment="# Graphene data" energy=-27.97412622878372 stress="-0.038974630027014845 0.005010656588565672 0.002254392893956635 0.005010656588565672 0.008022638047175854 0.0005446263868925111 0.002254392893956635 0.0005446263868925111 0.001422068844783266" free_energy=-27.97412622878372 pbc="T T T"
C        0.07081925       1.25270530      14.94133901        1        6      -3.11866000      -1.68947000       2.47679000
C        0.79852507      -0.01524125      15.05849904        2        6     -14.18160000       1.24899000      -1.80793000
C        2.04948265      -0.07362040      14.98186761        3        6      14.66080000       4.04061000       1.59031000
C        2.80216850       1.23946220      15.07535786        4        6       2.63950000      -3.60013000      -2.25916000
