4
Lattice="4.2600002 0.0 0.0 0.0 2.4768 0.0 0.0 0.0 30.0" Properties=species:S:1:pos:R:3:id:I:1:type:I:1:forces:R:3 comment="# Graphene data" energy=-28.01099421138771 stress="-0.009272837408408782 -0.009295459339712568 -0.004806506643704684 -0.009295459339712568 -0.014736184064913477 -0.004688957952258049 -0.004806506643704684 -0.004688957952258049 0.0009362814468281124" free_energy=-28.01099421138771 pbc="T T T"
C        0.07410280       1.24792080      14.94109955        1        6      -6.37900000      -8.64832000       1.01494000
C        0.65866934      -0.08577130      15.07288275        2        6       3.89831000       9.69123000      -1.08823000
C        2.03187488      -0.03687480      15.05964739        3        6       8.09550000       1.55918000      -1.19855000
C        2.91566375       1.27367111      14.93255221        4        6      -5.61481000      -2.60209000       1.27184000
