4
Lattice="4.2600002 0.0 0.0 0.0 2.4768 0.0 0.0 0.0 30.0" Properties=species:S:1:pos:R:3:id:I:1:type:I:1:forces:R:3 comment="# Graphene data" energy=-29.08179317571513 stress="-0.006903723434606393 -0.010608363735351204 0.0007677696219746999 -0.010608363735351204 0.0010965147536647765 -0.00038537378800122156 0.0007677696219746999 -0.00038537378800122156 7.73998610615884e-05" free_energy=-29.08179317571513 pbc="T T T"
C        0.02568151       1.31603076      15.01534388        1        6      -3.56070000      -5.75868000       0.20178300
C        0.68940529       0.00502629      15.03257371        2        6      -0.47755200       5.50555000      -0.45168300
C        2.05285619       0.04583133      14.96440880        3        6       5.65719000      -1.97250000       0.47173300
C        2.83906789       1.24434857      14.98238929        4        6      -1.61894000       2.22562000      -0.22183200
