4
Lattice="4.2600002 0.0 0.0 0.0 2.4768 0.0 0.0 0.0 30.0" Properties=species:S:1:pos:R:3:id:I:1:type:I:1:forces:R:3 comment="# Graphene data" energy=-28.67822172269752 stress="-0.0020793109311278736 -0.014140440512835731 0.001945488812062708 -0.014140440512835731 -0.013315998166314305 0.002037248075576391 0.001945488812062708 0.002037248075576391 0.000429062039796977" free_energy=-28.67822172269752 pbc="T T T"
C        0.02347182       1.30036560      15.01766476        1        6      -6.89498000      -6.53277000      -1.40617000
C        0.64411195      -0.00917761      14.95044865        2        6       2.45604000       6.97757000       0.99363000
C        2.04584044       0.07597629      14.94866767        3        6       0.31459500      -6.34185000      -0.74553000
C        2.74454579       1.23022399      14.91364252        4        6       4.12435000       5.89705000       1.15807000
