4
Lattice="4.2600002 0.0 0.0 0.0 2.4768 0.0 0.0 0.0 30.0" Properties=species:S:1:pos:R:3:id:I:1:type:I:1:forces:R:3 comment="# Graphene data" energy=-29.14857439004845 stress="0.003461594259351018 0.005337003560309834 0.0005320314668481995 0.005337003560309834 -0.0075680895764873345 6.23876605966842e-05 0.0005320314668481995 6.23876605966842e-05 6.955871929757852e-05" free_energy=-29.14857439004845 pbc="T T T"
C       -0.06606237       1.27199742      14.95960117        1        6      -0.35436700       3.34022000       0.31065900
C        0.62761857       0.09655136      14.98355983        2        6       3.33935000      -5.15150000      -0.00971176
C        2.14360063      -0.00403991      15.02395833        3        6      -5.19748000       1.30465000      -0.39591700
C        2.77522414       1.23655528      14.99850834        4        6       2.21250000       0.50662700       0.09496970
