4
Lattice="4.2600002 0.0 0.0 0.0 2.4768 0.0 0.0 0.0 30.0" Properties=species:S:1:pos:R:3:id:I:1:type:I:1:forces:R:3 comment="# Graphene data" energy=-28.3955550098549 stress="-0.0063920372904536895 0.0161688771684466 -0.00022970026196106482 0.0161688771684466 -0.013731898345287258 -0.0026298742525582342 -0.00022970026196106482 -0.0026298742525582342 0.0004360007895615366" free_energy=-28.3955550098549 pbc="T T T"
C        0.02835662       1.15913263      15.05864645        1        6      -3.20253000       5.24277000      -0.99109500
C        0.65183658      -0.03765692      15.04750131        2        6       4.88446000      -3.63140000       0.27683300
C        2.10337530      -0.08411380      14.99184578        3        6      -1.45204000       9.02473000      -0.64119300
C        2.87397314       1.32135864      14.92750508        4        6      -0.22989900     -10.63610000       1.35546000
