4
Lattice="4.2600002 0.0 0.0 0.0 2.4768 0.0 0.0 0.0 30.0" Properties=species:S:1:pos:R:3:id:I:1:type:I:1:forces:R:3 comment="# Graphene data" energy=-27.99380453809582 stress="-0.004009859481212052 -0.0029898106813004903 -0.002584226791512918 -0.0029898106813004903 -0.02721446447425093 -0.0023365541078715726 -0.002584226791512918 -0.0023365541078715726 0.0008269679359690329" free_energy=-27.99380453809582 pbc="T T T"
C        0.02818069       1.30817635      14.93399831        1        6      -4.10263000     -10.28490000       1.87809000
C        0.76896017      -0.09219801      15.02991269        2        6       0.65900600       9.48962000      -1.20105000
C        2.18435792      -0.07077297      15.03894523        3        6      -5.25916000       6.41546000       0.99350500
C        2.76079510       1.23383354      15.08414832        4        6       8.70278000      -5.62020000      -1.67054000
