4
Lattice="4.2600002 0.0 0.0 0.0 2.4768 0.0 0.0 0.0 30.0" Properties=species:S:1:pos:R:3:id:I:1:type:I:1:forces:R:3 comment="# Graphene data" energy=-28.74113044191979 stress="-0.020605898812765786 -0.010919293170870559 -0.001701779414648153 -0.010919293170870559 0.005926462847041409 0.0014574633728550502 -0.001701779414648153 0.0014574633728550502 0.00032390635169720586" free_energy=-28.74113044191979 pbc="T T T"
C        0.06871903       1.23036110      15.02675806        1        6       0.24591000      -0.37499700      -0.59429200
C        0.79338711      -0.01324528      15.01396081        2        6      -5.80747000       0.90484300       0.57833200
C        2.11427333       0.08081961      15.07847674        3        6       7.87268000      -6.05347000      -1.23891000
C        2.92104736       1.19258385      15.00201314        4        6      -2.31112000       5.52362000       1.25487000
