4
Lattice="4.2600002 0.0 0.0 0.0 2.4768 0.0 0.0 0.0 30.0" Properties=species:S:1:pos:R:3:id:I:1:type:I:1:forces:R:3 comment="# Graphene data" energy=-28.98826631859812 stress="-0.009972614882591295 0.014360817377121755 0.00017522165505492811 0.014360817377121755 0.0026376413034777473 -0.0019552795582964163 0.00017522165505492811 -0.0019552795582964163 0.0004375577058757517" free_energy=-28.98826631859812 pbc="T T T"
C       -0.05320489       1.16681020      15.01342061        1        6      -1.39654000       6.50461000      -1.48169000
C        0.64717317       0.01685609      14.92386895        2        6      -0.16034400      -5.68691000       1.32582000
C        2.03033313      -0.02956009      14.95682716        3        6       2.92888000       3.93639000      -0.66580600
C        2.79201793       1.28553461      14.94349856        4        6      -1.37199000      -4.75410000       0.82166900
