4
Lattice="4.2600002 0.0 0.0 0.0 2.4768 0.0 0.0 0.0 30.0" Properties=species:S:1:pos:R:3:id:I:1:type:I:1:forces:R:3 comment="# Graphene data" energy=-27.88514441960859 stress="-0.0053347325732942905 -0.017637009351177214 -0.003400516915857088 -0.017637009351177214 -0.025239897385634112 -0.0062126217181844795 -0.003400516915857088 -0.0062126217181844795 0.0007012100713188307" free_energy=-27.88514441960859 pbc="T T T"
C        0.08528851       1.25929747      15.05253935        1        6      -3.96337000      -2.76518000      -0.11077700
C        0.77398487      -0.00714303      14.97591107        2        6      -1.45398000       2.22363000      -0.05795100
C        2.17023160       0.03434909      14.90934898        3        6      -5.16777000     -12.92460000       1.39854000
C        2.75457109       1.14238023      15.07379487        4        6      10.58510000      13.46610000      -1.22982000
