4
Lattice="4.2600002 0.0 0.0 0.0 2.4768 0.0 0.0 0.0 30.0" Properties=species:S:1:pos:R:3:id:I:1:type:I:1:forces:R:3 comment="# Graphene data" energy=-28.32165987203581 stress="-0.0019561338205418433 0.0010211299473039247 -0.004910600811416061 0.0010211299473039247 -0.011406181861882305 0.002397178107727336 -0.004910600811416061 0.002397178107727336 0.0010980601970074374" free_energy=-28.32165987203581 pbc="T T T"
C       -0.06578207       1.25371303      15.08218592        1        6       5.40320000      -1.92970000      -1.19683000
C        0.79539968      -0.06744302      14.94942490        2        6      -5.29941000       4.33582000       1.21957000
C        2.21540577       0.04182404      14.95023145        3        6      -6.05446000       1.15280000       1.31837000
C        2.77774640       1.30768226      15.09090920        4        6       5.95067000      -3.55893000      -1.34111000
