4
Lattice="4.2600002 0.0 0.0 0.0 2.4768 0.0 0.0 0.0 30.0" Properties=species:S:1:pos:R:3:id:I:1:type:I:1:forces:R:3 comment="# Graphene data" energy=-29.00508381875384 stress="-0.0006869985112715852 -0.011717173484678062 0.0008061688962539853 -0.011717173484678062 -0.004945758474989244 -0.0005615934286827675 0.0008061688962539853 -0.0005615934286827675 0.0006022528052144872" free_energy=-29.00508381875384 pbc="T T T"
C       -0.00632327       1.23649842      14.90569230        1        6       0.65205800      -4.04525000       1.61059000
C        0.69267509      -0.05262031      15.02094512        2        6       2.90323000       3.33094000      -1.12556000
C        2.18999222      -0.01017224      15.05704688        3        6      -4.63795000      -5.86941000      -0.22312600
C        2.85391376       1.15006989      15.00931541        4        6       1.08266000       6.58373000      -0.26189700
