4
Lattice="4.2600002 0.0 0.0 0.0 2.4768 0.0 0.0 0.0 30.0" Properties=species:S:1:pos:R:3:id:I:1:type:I:1:forces:R:3 comment="# Graphene data" energy=-28.33952865852608 stress="-0.024789326193498298 -0.009270406848378224 0.0014890800355704928 -0.009270406848378224 0.0022047305038174316 0.0024074556296755215 0.0014890800355704928 0.0024074556296755215 0.0005366954212515428" free_energy=-28.33952865852608 pbc="T T T"
C       -0.03432039       1.17718716      15.02472602        1        6       1.57721000       0.36363100      -0.13948900
C        0.78704409      -0.04819421      15.06173687        2        6     -13.22250000      -0.05776370      -0.02953410
C        2.07609664       0.00542198      15.07742684        3        6       6.44929000      -6.79368000      -1.38097000
C        2.74410817       1.15355488      14.96278313        4        6       5.19598000       6.48781000       1.55000000
