4
Lattice="4.2600002 0.0 0.0 0.0 2.4768 0.0 0.0 0.0 30.0" Properties=species:S:1:pos:R:3:id:I:1:type:I:1:forces:R:3 comment="# Graphene data" energy=-28.60599222992734 stress="0.00989643209008167 -0.0023217898729464004 -0.0026521120150873163 -0.0023217898729464004 -0.02595658852212867 -0.0014682720018574821 -0.0026521120150873163 -0.0014682720018574821 0.0005082219159960699" free_energy=-28.60599222992734 pbc="T T T"
C        0.04415749       1.22797102      14.97827694        1        6      -8.31464000      -5.11113000       1.60731000
C        0.61667291      -0.06605365      15.07484241        2        6       7.03290000       5.84522000      -1.24073000
C        2.11070712      -0.04043417      15.06248453        3        6      -3.87466000       2.99121000       0.63574500
C        2.74786613       1.24143386      15.07265033        4        6       5.15640000      -3.72529000      -1.00233000
