4
Lattice="4.2600002 0.0 0.0 0.0 2.4768 0.0 0.0 0.0 30.0" Properties=species:S:1:pos:R:3:id:I:1:type:I:1:forces:R:3 comment="# Graphene data" energy=-27.2354468836841 stress="0.0018539138352431912 -0.012390846279867118 -0.0016213281977263602 -0.012390846279867118 -0.052791762715129455 -0.00317158672057085 -0.0016213281977263602 -0.00317158672057085 7.336920743794148e-05" free_energy=-27.2354468836841 pbc="T T T"
C        0.09992672       1.20637078      14.96143141        1        6      -6.20678000       6.32110000       0.02411040
C        0.74110987       0.04645986      14.92498541        2        6       3.49763000      -5.78716000       0.23615500
C        2.21439429       0.08240870      14.94794520        3        6     -11.00660000     -16.44880000       0.10686200
C        2.74241940       1.19111967      14.99732042        4        6      13.71570000      15.91480000      -0.36712800
