4
Lattice="4.2600002 0.0 0.0 0.0 2.4768 0.0 0.0 0.0 30.0" Properties=species:S:1:pos:R:3:id:I:1:type:I:1:forces:R:3 comment="# Graphene data" energy=-27.74706231277584 stress="-0.014713152405774806 -0.013650262603832978 -0.003119315224285154 -0.013650262603832978 -0.012528399300189157 -0.006409883584877804 -0.003119315224285154 -0.006409883584877804 0.0034245899675527797" free_energy=-27.74706231277584 pbc="T T T"
C        0.09698382       1.20323833      14.90650595        1        6      -4.85049000      -2.21522000       3.60680000
C        0.78360181      -0.07392302      15.09200297        2        6      -3.10818000       4.70469000      -3.38488000
C        2.14040048       0.07966751      14.95182187        3        6      -0.33221000     -11.23360000       2.85155000
C        2.77863765       1.20475609      15.09695429        4        6       8.29089000       8.74415000      -3.07348000
