4
Lattice="4.2600002 0.0 0.0 0.0 2.4768 0.0 0.0 0.0 30.0" Properties=species:S:1:pos:R:3:id:I:1:type:I:1:forces:R:3 comment="# Graphene data" energy=-27.56249745373533 stress="-0.04912749694813931 0.0036016245246727886 -0.010275392696727503 0.0036016245246727886 0.013905120871699274 -0.0006920856836122085 -0.010275392696727503 -0.0006920856836122085 0.002272611846554506" free_energy=-27.56249745373533 pbc="T T T"
C       -0.06906519       1.21886790      15.02627594        1        6      13.55520000       0.55489000      -2.00749000
C        0.80464222      -0.00141545      14.93786723        2        6     -13.04580000      -0.65155400       1.98902000
C        2.08933447      -0.06827883      15.08363822        3        6      11.45940000       0.97347500      -3.04390000
C        2.90842141       1.19408141      14.90581025        4        6     -11.96880000      -0.87681100       3.06236000
