4
Lattice="4.2600002 0.0 0.0 0.0 2.4768 0.0 0.0 0.0 30.0" Properties=species:S:1:pos:R:3:id:I:1:type:I:1:forces:R:3 comment="# Graphene data" energy=-28.91763348380888 stress="0.009050279187854818 -0.005714011440143292 -0.0006462817480471159 -0.005714011440143292 -0.01762976492523401 -0.0006893134959517872 -0.0006462817480471159 -0.0006893134959517872 0.00014672288864797707" free_energy=-28.91763348380888 pbc="T T T"
C        0.06846239       1.24112484      14.92015810        1        6      -5.91057000      -5.43920000       0.57673600
C        0.68329436      -0.04357634      14.92867664        2        6       5.31095000       2.79750000      -0.03508020
C        2.17545125      -0.09801645      14.97205536        3        6      -4.45604000       0.38362900       0.16945600
C        2.80372597       1.13114813      14.99741511        4        6       5.05566000       2.25807000      -0.71111300
