4
Lattice="4.2600002 0.0 0.0 0.0 2.4768 0.0 0.0 0.0 30.0" Properties=species:S:1:pos:R:3:id:I:1:type:I:1:forces:R:3 comment="# Graphene data" energy=-28.661662555881 stress="0.005107940709165396 -0.009181371095248827 0.0007339462541795586 -0.009181371095248827 -0.019172060786669064 0.0026418001322644088 0.0007339462541795586 0.0026418001322644088 0.0004042232003713659" free_energy=-28.661662555881 pbc="T T T"
C        0.08127095       1.27374784      15.02113232        1        6      -5.84008000      -1.40938000       0.28050600
C        0.70003171       0.03435800      15.09734871        2        6       3.63923000      -0.40817100      -0.57999500
C        2.15284282       0.01752450      15.07673998        3        6      -3.99464000      -7.06473000      -0.68461500
C        2.79354116       1.15955543      14.97471856        4        6       6.19549000       8.88228000       0.98410300
