4
Lattice="4.2600002 0.0 0.0 0.0 2.4768 0.0 0.0 0.0 30.0" Properties=species:S:1:pos:R:3:id:I:1:type:I:1:forces:R:3 comment="# Graphene data" energy=-28.44856790991516 stress="-0.021136815475993602 -0.019864400045037506 -0.0003069558973435766 -0.019864400045037506 -0.001007708531327804 0.0020820307803292876 -0.0003069558973435766 0.0020820307803292876 0.0002404910402382569" free_energy=-28.44856790991516 pbc="T T T"
C       -0.07449047       1.31549543      15.08112562        1        6      -0.29160400     -10.41660000      -0.97391200
C        0.65933129      -0.09147513      15.02295291        2        6       1.02292000      11.18270000       0.89034400
C        2.03805807       0.04457549      15.03873130        3        6       4.08319000      -2.33629000      -0.71284100
C        2.82022554       1.25329585      15.01263002        4        6      -4.81450000       1.57025000       0.79640900
