4
Lattice="4.2600002 0.0 0.0 0.0 2.4768 0.0 0.0 0.0 30.0" Properties=species:S:1:pos:R:3:id:I:1:type:I:1:forces:R:3 comment="# Graphene data" energy=-28.19888117803544 stress="-0.033393877517631544 -0.003403661139399953 0.0014511164487650237 -0.003403661139399953 0.00698334817937827 0.0019517702052243716 0.0014511164487650237 0.0019517702052243716 0.0007931398235899718" free_energy=-28.19888117803544 pbc="T T T"
C        0.02901299       1.17664651      14.97025301        1        6      -2.69660000       2.60294000       0.18833300
C        0.77333552      -0.01854802      15.04029350        2        6     -13.05300000      -1.57173000      -0.33200500
C        2.03937950       0.05813178      15.03843378        3        6      11.19930000      -4.24707000      -1.60316000
C        2.74342203       1.23519867      14.90241722        4        6       4.55026000       3.21586000       1.74683000
