4
Lattice="4.2600002 0.0 0.0 0.0 2.4768 0.0 0.0 0.0 30.0" Properties=species:S:1:pos:R:3:id:I:1:type:I:1:forces:R:3 comment="# Graphene data" energy=-28.47968730952167 stress="-0.0009704206931501818 -0.01100165236685132 -0.002911936633277125 -0.01100165236685132 -0.007931617803599453 -0.0049923988528207935 -0.002911936633277125 -0.0049923988528207935 0.0014287151162711387" free_energy=-28.47968730952167 pbc="T T T"
C        0.00878808       1.30387552      15.09397147        1        6       0.11628800      -1.53195000      -1.45535000
C        0.72870522       0.07589551      14.92336055        2        6       1.05468000      -1.54225000       1.34111000
C        2.19623074       0.00471907      14.90172618        3        6      -6.11196000      -7.68166000       1.24988000
C        2.82614604       1.13064700      15.07913134        4        6       4.94099000      10.75590000      -1.13564000
