54
Lattice="19.173938 0.000456 -0.025754 -0.000245 10.309404 0.000007 0.013561 0.000002 30.000000 " Properties=species:S:1:pos:R:3:forces:R:3 energy=-323.21193092 pbc="T T T"
Mo	      2.14530      0.00007      3.83746         0.001201     -0.000018     -0.003032
Mo	      4.47897      1.71834      4.01086         0.004828     -0.000024      0.006136
Mo	      2.14523      3.43649      3.83747         0.001155      0.000033     -0.003011
Mo	      4.47888      5.15479      4.01087         0.004849      0.000022      0.006115
Mo	      2.14514      6.87299      3.83747         0.001160     -0.000022     -0.002974
Mo	      4.47880      8.59130      4.01087         0.004843      0.000013      0.006131
Mo	      8.53662      0.00021      3.82889         0.003276      0.000018     -0.004118
Mo	     10.87026      1.71849      4.00228        -0.004636      0.000005      0.005790
Mo	      8.53653      3.43665      3.82889         0.003274     -0.000016     -0.004149
Mo	     10.87018      5.15495      4.00227        -0.004639     -0.000016      0.005822
Mo	      8.53645      6.87315      3.82889         0.003275      0.000011     -0.004125
Mo	     10.87011      8.59145      4.00228        -0.004681      0.000006      0.005795
Mo	     14.92792      0.00038      3.82030        -0.005478      0.000006     -0.005039
Mo	     17.26159      1.71864      3.99373        -0.000922      0.000014      0.005813
Mo	     14.92783      3.43680      3.82030        -0.005474     -0.000003     -0.005040
Mo	     17.26150      5.15510      3.99371        -0.000682     -0.000088      0.006288
Mo	     14.92777      6.87330      3.82030        -0.005545     -0.000002     -0.005064
Mo	     17.26142      8.59160      3.99372        -0.000736      0.000070      0.006238
Te	      0.55947      1.71824      5.40881        -0.002614      0.000016      0.000777
Te	      3.81274      3.43655      5.98512        -0.000854      0.000028      0.000687
Te	      6.06486      0.00014      2.44059         0.004879      0.000012     -0.007006
Te	      2.81163      1.71830      1.86285        -0.001821     -0.000028      0.003911
Te	      0.55941      5.15471      5.40882        -0.002738     -0.000009      0.000589
Te	      3.81265      6.87302      5.98511        -0.000834      0.000005      0.000699
Te	      6.06478      3.43661      2.44059         0.004877     -0.000013     -0.006992
Te	      2.81153      5.15476      1.86287        -0.001789      0.000018      0.003923
Te	      0.55933      8.59119      5.40883        -0.002737     -0.000010      0.000619
Te	      3.81282      0.00010      5.98512        -0.000856     -0.000032      0.000704
Te	      6.06469      6.87309      2.44061         0.004909     -0.000001     -0.007000
Te	      2.81144      8.59125      1.86287        -0.001766      0.000007      0.003906
Te	      6.95081      1.71840      5.40024        -0.001923     -0.000018     -0.004009
Te	     10.20402      3.43671      5.97652        -0.000216     -0.000002     -0.000332
Te	     12.45616      0.00031      2.43201         0.004504      0.000034     -0.001520
Te	      9.20293      1.71845      1.85427         0.001973      0.000004      0.004727
Te	      6.95073      5.15486      5.40023        -0.001932      0.000020     -0.004035
Te	     10.20395      6.87318      5.97652        -0.000252     -0.000026     -0.000361
Te	     12.45607      3.43676      2.43202         0.004521     -0.000015     -0.001526
Te	      9.20284      5.15492      1.85428         0.001999      0.000006      0.004730
Te	      6.95064      8.59134      5.40024        -0.001926     -0.000001     -0.004054
Te	     10.20387     10.30964      5.97654        -0.000248      0.000025     -0.000351
Te	     12.45600      6.87324      2.43202         0.004482     -0.000016     -0.001493
Te	      9.20277      8.59140      1.85428         0.001939     -0.000015      0.004704
Te	     13.34210      1.71855      5.39167        -0.003964      0.000008      0.002648
Te	     16.59534      3.43686      5.96795        -0.000439      0.000071      0.000140
Te	     18.84748      0.00046      2.42342         0.002570      0.000017     -0.007432
Te	     15.59422      1.71860      1.84569        -0.000378      0.000026      0.002899
Te	     13.34203      5.15502      5.39165        -0.004008     -0.000013      0.002685
Te	     16.59528      6.87333      5.96794        -0.000469     -0.000000      0.000091
Te	     18.84740      3.43690      2.42343         0.002533      0.000011     -0.007411
Te	     15.59414      5.15507      1.84571        -0.000469      0.000025      0.002747
Te	     13.34194      8.59149      5.39166        -0.003974      0.000005      0.002697
Te	     16.59541      0.00040      5.96795        -0.000411     -0.000071      0.000175
Te	     18.84731      6.87339      2.42344         0.002567     -0.000012     -0.007444
Te	     15.59406      8.59156      1.84570        -0.000453     -0.000057      0.002783
