ITEM: TIMESTEP
0
ITEM: NUMBER OF ENTRIES
3732
ITEM: BOX BOUNDS pp pp pp
0 8.52
0 7.37854
0 30
ITEM: ENTRIES c_2[1] c_2[2] c_2[3] c_2[4] c_2[5] c_2[6] c_2[7] c_2[8] c_2[9] c_2[10] c_2[11] c_2[12] c_2[13] c_2[14] c_2[15] c_2[16] c_2[17] 
                   0                  123            0.6851029       -0.02266641172      -0.002532260432     -9.218922662e-05     -2.003575343e-19     -9.988941893e-86    -5.089691805e-169      -0.006398095652      -0.004746770741      -0.006058928249      -0.000371433641      -0.004303030736     -1.784521866e-08      -0.002691835026      2.827927687e-34 
                   1                   10          -4.92828954         0.2127340678        0.02376635831      0.0008652357256      1.880442031e-18      9.375053576e-85     4.776895678e-168        0.06037919356        0.04456930942        0.05728062245       0.003389411722        0.04031142925      9.306263001e-08        0.01941054119      8.675048629e-34 
                   1                    1          14.99079496      0.0004599566701      5.138572839e-05      1.870743822e-06      4.065742097e-21      2.026999469e-87     1.032822364e-170      0.0001427566112      0.0001171441138      0.0001390926757      4.041322322e-06      0.0001316405081       5.49227707e-10      0.0001258340391     -1.446742868e-35 
                   0                  124           2.21191934       -0.01128377743      -0.001155433438     -2.784399354e-05     -1.784696003e-21     -1.341293274e-93    -6.732697213e-184      -0.002323037857      -0.001746425532      -0.002219502933     -0.0001130807893      -0.001588502162     -1.491245368e-10     -0.0004937444201     -7.288140147e-53 
                   1                   11          -4.83417833        0.03138399367       0.003213650386      7.744354427e-05      4.963841976e-21      3.730589324e-93     1.872590345e-183       0.006463496111       0.004860499159       0.006175413339      0.0003146524676       0.004418274513      4.311714478e-10       0.001377140828      8.502401683e-53 
                   1                    1          14.93536489      0.0003552783402      3.637970321e-05      8.766893773e-07       5.61925151e-23      4.223164193e-95     2.119841077e-185      7.409175838e-05      5.524561035e-05      7.093729189e-05      3.445968251e-06      5.193557261e-05      4.954344795e-12      1.797237226e-05     -3.970390066e-55 
                   0                  166          -6.32259719       0.006964357482      0.0007045314693      1.598222526e-05      5.758616433e-22      4.637289479e-95     1.894845357e-186       0.001301949002      0.0009654031207        0.00124687394      6.016439619e-05      0.0009195281188      8.973186494e-11      0.0003402825692      1.298927858e-48 
                   1                    3          -0.09828979       0.001468235606      0.0001485303119      3.369395131e-06      1.214039588e-22       9.77639868e-96     3.994739542e-187      0.0002743918355      0.0002035239167      0.0002627820362      1.268256479e-05      0.0001936999704      1.861750971e-11      7.148844014e-05      3.508379248e-49 
                   1                    1          14.91626413      9.636328268e-05      9.748345818e-06      2.211402408e-07      7.967988211e-24      6.416448869e-97     2.621828636e-188      1.807869783e-05      1.335472899e-05      1.732286663e-05      8.256971379e-07      1.284330028e-05      1.260789029e-12      4.997929306e-06      1.570681878e-50 
                   0                  170          -5.66025789         0.2047307307        0.02297495691      0.0008535789994      2.189801657e-18      2.106182674e-84     2.413221845e-167         0.0575260119        0.04160845415        0.05467438054       0.003119762517         0.0394688477      5.663546908e-09        0.02146334142      8.682432326e-59 
                   1                   20          -1.20218359         0.0879198404       0.009866396403      0.0003665621138      9.403913693e-19      9.044819208e-85     1.036337236e-167        0.02462330978        0.01769607493         0.0234090802       0.001328246624        0.01692782077      3.409667969e-09       0.008584505149      1.334906021e-56 
                   1                    1          15.06369652      -0.002143876165     -0.0002405865614     -8.938412255e-06     -2.293091791e-20     -2.205528607e-86    -2.527050423e-169      -0.000630281922     -0.0004251269902     -0.0006014293405     -3.155115497e-05      -0.000438007048     -9.319924221e-11     -0.0002225958334     -2.809859729e-58 
                   0                  171          -4.34832169         0.6753012216         0.1108981647        0.01796445003      8.080213701e-12      9.191283486e-56     3.222791057e-111         0.6129363491         0.4870272353         0.5509253427        0.06864211912         0.3259841235       0.001240733166         0.1088328905      1.748864953e-06 
                   1                   21          -1.31194004         0.3938796749        0.06468303573        0.01047803782      4.712907136e-12      5.360955431e-56     1.879741741e-111         0.3527989004         0.2590470366         0.3180145145        0.03859222017         0.1992048983      0.0008203188924         0.1275316883      2.400596995e-07 
                   1                    1          14.91272921        0.01410483198       0.002316299644       0.000375218556      1.687692143e-13      1.919758251e-57     6.731355564e-113        0.01683194629      -0.006578748188         0.0160624388      0.0008576507231        0.01537816208      2.262620633e-05        0.03803466263      6.207521829e-08 
                   0                  172          -3.57559724         0.8361140754         0.2105519445         0.1096517286      1.145015617e-06      1.471304266e-31      3.252781998e-63          2.006366262          1.702066942          1.590627557         0.4735915049         0.7938496464         0.0411724366         0.3150331056       0.001860400915 
                   1                    6          -0.07484246         0.3052066829        0.07685776672        0.04002616549      4.179649984e-07      5.370701291e-32      1.187362865e-63          0.716823239         0.6390497338         0.5631549607         0.1744524329         0.3266314113       0.004262250936        -0.1208401383      0.0004760400194 
                   1                    1          15.00392882      4.729763039e-05      1.191058534e-05      6.202822178e-06      6.477169447e-11       8.32293193e-36      1.840046535e-67       0.007500221783       -0.01158040696       0.009967078446      -0.002733726753        0.02957985706      7.484804219e-05        0.09906455868      2.760882647e-05 
                   0                  173          -1.32382058         0.2037457555         0.0330158888       0.005117089377      1.587329875e-12      3.616082495e-57     1.702595889e-113         0.1815735299          0.145855124         0.1637197756          0.019683617        0.09721770543      0.0001490531337        0.01287050963      3.707961262e-05 
                   1                   16          -3.68364707         0.7422617261         0.1202794657        0.01864195691      5.782766909e-12      1.317367141e-56     6.202690016e-113         0.6601299649         0.5322327085         0.5934258949        0.07348068222         0.3331140776      0.0004819398724        0.06165811193      0.0001364570678 
                   1                    1          14.96884823       0.005318727761      0.0008618708346      0.0001335802322      4.143681644e-14       9.43968541e-59     4.444580452e-115       0.006455617042       0.004536747086       0.006198410261      0.0002818145922       0.004733737571      2.106595867e-06       0.003993199409      1.003297415e-06 
                   0                  174          -0.03891812        0.01498506634       0.006579329889       0.008287443677      0.0002231742927      2.907785358e-14      3.626031757e-27        0.08735826144       -0.06463679502         0.0553930456        0.04902841742         0.3506797249        -0.1447930828         0.4619968567        0.04403870591 
                   1                   17          -1.22329759         0.5531437235         0.2428627909         0.3059143917       0.008238032218      1.073350751e-12      1.338477029e-25          3.325914588          3.289370983          1.998214256           1.61003304         0.5182355556         0.4753541013       0.006424993728         0.1434391366 
                   1                    1          15.07522088       -0.01595981351      -0.007007301515      -0.008826524527      -0.000237691313     -3.096930705e-14     -3.861897527e-27       -0.07053256635        -0.0222249547       -0.08848672446       -0.03662546634        -0.1002628751       -0.02684907351        -0.1667949048       -0.08106486751 
                   0                  175          -3.59718021         0.5431534903        0.08772182295        0.01344536653      3.798449276e-12      5.774467852e-57     1.640819589e-113         0.4757160341         0.3843157402         0.4282920473        0.05224545715         0.2373634017      0.0003522491652        0.04241061404      5.287498058e-05 
                   1                   22          -2.36959689         0.5409215663         0.0873613568        0.01339011689      3.782840704e-12      5.750739434e-57      1.63407714e-113         0.4709314927         0.3804418616         0.4249579894        0.05068589799         0.2450516815      0.0003841838744        0.02315779042      5.129726991e-05 
                   1                    1          14.94966533       0.008161117322       0.001318058526      0.0002020224774      5.707335171e-14      8.676388987e-59     2.465402766e-115       0.009644989452       0.007124920294        0.00920134857      0.0004871177505       0.007126491908       3.50421157e-06       0.002533564461      8.513553778e-07 
                   0                  176           -2.1042644         0.4608228234         0.1015650125        0.03864085914      2.595066663e-08       1.99369242e-38      1.312547529e-76         0.8390896933          0.690836593         0.7097241919          0.160551656         0.3167480902        0.02357316296          0.143405386        0.02650623377 
                   1                   23          -2.38867485         0.7844001498          0.172881218        0.06577342561      4.417252305e-08       3.39360933e-38      2.234182914e-76          1.434516844          1.214980816           1.20063737         0.2706176848         0.5331319291        0.03970349551         0.1857379931        0.03474825946 
                   1                    1          15.06072552       -0.01223177611      -0.002695874488      -0.001025657397     -6.888173241e-10     -5.291925243e-40     -3.483939314e-78        -0.0244209892        0.07591687979        -0.0220278022      -0.003948150996       -0.02291841927      -0.000644789706        -0.1259189194       -0.00117208811 
                   0                  177           -1.3811193         0.3337437576         0.1240932819         0.1280337288      0.0005752954193       2.80994182e-17      1.832660685e-34          1.515719922          1.547780334          1.061555119         0.6393332178         0.2795572394         0.2157005646        0.00356722712         0.2066266451 
                   1                   24          -1.22076311         0.5830141841         0.2167775181          0.223661052       0.001004978765      4.908663907e-17      3.201459651e-34           2.74255655          2.611731598           1.82326789          1.105376393         0.4701536841         0.3532264996        0.05829979111         0.1972672677 
                   1                    1          14.91198621        0.02182714299       0.008115812642       0.008373521428      3.762483969e-05      1.837727313e-18       1.19857663e-35        0.02875454181       -0.02195029155         0.1484242174        0.01382580813         0.1488831196        0.02932386827         0.1899696731         0.1634647352 
                   0                  128           2.19740281        -0.4946567982        -0.2087646233        -0.2518577374      -0.004601489545     -1.084736306e-13      -1.59704773e-27         -2.867235921         -2.706842835         -1.723800868         -1.328336834        -0.6825606272        -0.2518220361        -0.3328453729        -0.1022670852 
                   1                    3          -0.09828979         0.3052438728         0.1288249194         0.1554169102        0.00283949699      6.693713951e-14      9.855096218e-28          1.652002708           1.80259498          1.023063559         0.8436221787       -0.02400563663           0.30381531        -0.4628042771          0.115352253 
                   1                    1          14.91626413        0.02003377488       0.008455040913        0.01020032724      0.0001863619503      4.393220318e-15      6.468099661e-29         0.1230829441        -0.0823592141         0.1537273356        0.02410753691         0.2269883632        0.01242094752          0.229212071        0.03524903219 
                   0                  129           0.01170635        0.00269601114      0.0004655147006      8.865325715e-05      1.563668021e-13      6.657800914e-55     3.814322315e-107       0.002723919353        0.03332566601       0.003567535497     -0.0008297798624       0.009649070062      7.499122226e-05        0.02149397542     -7.929355599e-06 
                   1                    9          -3.67805191          0.822508916         0.1420209235        0.02704665918      4.770495457e-11      2.031186196e-52      1.16368737e-104         0.8620497554         0.6715487066         0.7668555948         0.1057534069         0.4390308931       0.003450575608         0.1904983563       1.30989266e-05 
                   1                    1          15.04829183      -0.007384530003      -0.001275071613     -0.0002428263844     -4.282976895e-13     -1.823610069e-54    -1.044764881e-106      -0.008762005379       -0.03705497568      -0.007966270636      -0.000885462149      -0.004878490571     -3.167520534e-05       0.008163893939     -8.738020628e-08 
                   0                  130           2.88288556        -0.2862672372        -0.0390758425      -0.003279061349     -6.273207495e-15     -4.663840327e-69    -3.190083572e-137        -0.1568593176        -0.1132842363        -0.1464871739       -0.01139523158       -0.09651526655     -2.681886303e-05       -0.04017487452     -1.667161517e-16 
                   1                   12          -3.59357107         0.4846980686        0.06616190374       0.005551996515      1.062158418e-14      7.896657757e-69     5.401342331e-137         0.2660978092         0.1979597089         0.2486938569        0.01911943371         0.1657053515       4.51437942e-05        0.06728910185       2.09361688e-16 
                   1                    1          15.08255032      -0.007862682061      -0.001073266116     -9.006345645e-05     -1.723013661e-16     -1.280981157e-70    -8.761957227e-139       -0.00499298279        0.00150335356      -0.004743640769     -0.0002737488779      -0.003450247566     -5.796431133e-07       0.001319494653     -3.707358357e-18 
                   0                  131           4.20315752       -0.04866023153      -0.005079850438     -0.0001345582607     -2.022279248e-20     -3.590324545e-91    -7.119937961e-180       -0.01092145149      -0.008159514672       -0.01044122446     -0.0005247627924      -0.007619119355     -1.003223075e-09      -0.002537556177     -4.426331314e-45 
                   1                   13          -3.61007311        0.05652986219       0.005901394962      0.0001563198467      2.349334633e-20      4.170973819e-91     8.271417934e-180        0.01269128614       0.009471115067        0.01213457497      0.0006083302567        0.00887052034      1.249503097e-09       0.002978150804      6.039657986e-45 
                   1                    1          14.97687409       0.000317677549      3.316372293e-05      8.784614683e-07      1.320241796e-22      2.343937679e-93     4.648240194e-182      7.342049761e-05      5.151093468e-05      7.042178386e-05       3.27620697e-06      5.327086409e-05      5.360009684e-12      4.104695711e-05      1.616140722e-47 
                   0                  132           0.71960111         -0.162400021       -0.04226677063       -0.02363159571     -4.607299554e-07     -9.172607006e-31     -6.224644217e-61        -0.4175085042         -0.347302147        -0.3266663078        -0.1048577977        -0.1006314374       -0.02359719857        -0.2961889098       -0.00249803838 
                   1                   18          -2.43983998         0.8639974301         0.2248668502         0.1257243554      2.451166539e-06      4.879992521e-30      3.311623098e-60           2.23891207           1.94721017          1.753528077         0.5554385979         0.8522067174        0.05554946407        0.08040216915       0.005146920088 
                   1                    1          14.92357718        0.01891114101       0.004921876576       0.002751849637      5.365103465e-08      1.068130801e-31      7.248467321e-62        0.07017417277         0.0365288792        0.06552881474       0.005657620245        0.08820538701       0.001838191608         0.1119631007      0.0001453806884 
                   0                  133           2.16155508        -0.4596585019        -0.1008286335       -0.03790332129     -2.293481068e-08     -1.116284605e-38     -4.155063344e-77        -0.8430206324        -0.6871446805        -0.7017208359        -0.1593220269        -0.3820678072      -0.005601843111        -0.1512665483     -1.390857631e-06 
                   1                   19          -2.40381321         0.7850803137          0.172211707         0.0647375198      3.917183798e-08      1.906574259e-38      7.096699877e-77          1.437849453          1.174254333          1.197580888         0.2709062375         0.6728870651       0.008217962159         0.2517791899      3.066984446e-06 
                   1                    1          14.99128374       0.002767981166      0.0006071719709      0.0002282470117      1.381093219e-10      6.722065943e-41      2.502104722e-79       0.008676138384       -0.08857310683       0.008932629828     -0.0002507724758        0.01942849909     -1.195002623e-05         0.1460131919      4.355646901e-09 
                   0                  134           2.85974211        -0.6652349294        -0.1734760735       -0.09739397451     -1.969327856e-06     -4.601217736e-30     -3.813681863e-60         -1.729426966         -1.514435061         -1.349928108        -0.4337344613        -0.7039502971       -0.03228942595        0.06774803772      -0.003523499173 
                   1                   20          -1.20218359         0.5738059599         0.1496337617        0.08400828123      1.698666157e-06      3.968832728e-30      3.289534697e-60          1.479896479          1.258346402          1.149783208         0.3781581872         0.5147211445        0.04190857071         0.3932767729       0.006321575616 
                   1                    1          15.06369652        -0.0139919376       -0.00364873564      -0.002048494981     -4.142102476e-08     -9.677776768e-32      -8.02134649e-62        -0.0446117778       -0.01808598524       -0.03869470253      -0.006998536434       -0.03570547209      -0.001774656022        -0.1395739927      -0.000533754781 
                   0                  135           4.17167831        -0.7105823719        -0.1248390187       -0.02510108645     -7.017157567e-11     -2.209113467e-51    -1.539522717e-102        -0.7749109221        -0.5872679902        -0.6872409288       -0.09765866988        -0.4055370062      -0.003089834943        -0.2108908483     -1.172052449e-07 
                   1                   21          -1.31194004         0.4376920441        0.07689614524        0.01546132619      4.322305423e-11      1.360730898e-51     9.482881531e-103         0.4760416161         0.3784134927         0.4201191736        0.06213770671         0.2316347324        0.00189815587        0.06291627677      5.683141722e-07 
                   1                    1          14.91272921        0.01567375301        0.00275365112       0.000553670123      1.547817662e-12      4.872777627e-53     3.395820073e-104        0.02179360212         0.1091441429        0.02056645719        0.00138098977        0.01731500893      6.692453459e-05       0.001431552424     -1.291549957e-08 
                   0                  136           4.94440276        -0.7486959682        -0.1220184772       -0.01927465357     -7.015532275e-12     -3.191895667e-56    -3.564589716e-112        -0.6718466619        -0.5445251916         -0.602616927       -0.07639656242        -0.3382625689     -0.0008078268288       -0.04193430196     -5.274575332e-05 
                   1                    6          -0.07484246         0.2003027662        0.03264427692       0.005156654492      1.876904085e-12      8.539454714e-57     9.536543681e-113         0.1777212736         0.1436475129         0.1582289725        0.02147529764        0.08132391108      0.0001732521073        0.03151516602      1.791249381e-05 
                   1                    1          15.00392882       3.10407561e-05      5.058856935e-06      7.991225354e-07      2.908622932e-16      1.323352323e-60     1.477870386e-116      0.0002510061338      0.0003107367168      0.0002549827294     -3.557358242e-06     -5.259216445e-05       5.65807371e-06     -0.0006691723378     -4.781930243e-07 
                   0                  139           4.92281979        -0.2370821702       -0.02761017142      -0.001209602631     -1.183847438e-17     -2.461729955e-81    -2.180696262e-161       -0.07880977563       -0.05754286753       -0.07470126929      -0.004496804758       -0.05304338217     -2.696799667e-07       -0.02810078356     -2.771797863e-29 
                   1                   22          -2.36959689         0.1748508397        0.02036282042      0.0008920959155      8.731011636e-18      1.815554284e-81     1.608288688e-161        0.05805815207        0.04213599666        0.05500048934       0.003347226433        0.03894308752      2.418229227e-07        0.02194160134       9.48257611e-30 
                   1                    1          14.94966533       0.002638050145      0.0003072226674      1.345943642e-05      1.317285439e-19      2.739205171e-83     2.426494614e-163      0.0009672507473      0.0007165889486       0.000928096861      4.282097205e-05      0.0007010129995      2.649565114e-09      0.0001987415548       3.47385694e-31 
                   0                   44          -5.64354977         0.5338218014        0.07146671431       0.005564102568       5.76694906e-15      3.182676339e-70     8.506720305e-140         0.2616491324         0.1977542249         0.2445986535        0.01871116252         0.1615638038      1.544268432e-05         0.0591607596      2.062136496e-17 
                   1                    4            1.2730937      -0.003066411159     -0.0004105233801     -3.196165118e-05     -3.312685414e-17     -1.828212002e-72     -4.88648122e-142      -0.002311987838       0.003309916542      -0.002316003189      5.018656616e-06       -0.00268659827      1.479576671e-06      -0.009609042307     -3.051008831e-18 
                   1                    1          15.09648087      -0.008692329538      -0.001163707121     -9.060141977e-05     -9.390441067e-17     -5.182416956e-72     -1.38516666e-141      -0.004692594219      -0.001744262799      -0.004410937574     -0.0003087539493      -0.002994364213     -2.361946232e-07      -0.001111821532     -2.391910193e-19 
                   0                   45          -4.35611185         0.9038571477         0.1873452013        0.06076416548      1.023006063e-08      1.848504439e-41      6.330455374e-83           1.42634958          1.163327158          1.201229943         0.2531988862         0.6743655482        0.00662326181           0.24239226      2.515862582e-14 
                   1                    5           1.13119773        0.02253861615       0.004671647051       0.001515217537      2.550971803e-10      4.609437686e-43      1.578564755e-84        0.02793819313        0.06053044439        0.02078118472       0.007986101141      -0.008054838146      1.091206007e-05        -0.1043136993     -7.033894295e-14 
                   1                    1          14.96772314       0.007506718425       0.001555940203      0.0005046588188       8.49627453e-11      1.535220733e-43      5.257572628e-85        0.01913981599       -0.02543668223        0.01882707921       0.000404490212        0.02864543709      6.380127138e-06        0.09922046554      3.020932513e-16 
                   0                   46          -6.30808066        0.02291076248       0.002335194513      5.499913689e-05      2.843953435e-21      9.500136752e-94     1.910354196e-184       0.004289540352        0.00323565697       0.004094869654      0.0002126404201       0.002918313423      3.376809048e-10      0.0008175224185      5.319552964e-47 
                   1                   11           2.54435767      -0.004714715839     -0.0004805505085      -1.13180564e-05      -5.85246009e-22     -1.954995835e-94    -3.931242879e-185     -0.0008831044957      -0.000667094958     -0.0008431064819     -4.368990363e-05     -0.0006005310499     -6.465848646e-11     -0.0001633172509     -1.659642429e-47 
                   1                    1          14.93536489      0.0002486655087       2.53453953e-05      5.969416499e-07      3.086728904e-23      1.031112055e-95     2.073432512e-186      4.719070095e-05      3.527052306e-05      4.513569735e-05      2.244758394e-06      3.276047313e-05      3.736243619e-12      1.058866177e-05      4.754125304e-49 
                   0                   47          -2.17496366         0.4983053927         0.2146831269         0.2649738505       0.005942755222      3.457842567e-13      1.574566335e-26          2.899663709          2.927956874          1.791159128          1.378123947         0.3696478185         0.4112511262        -0.2563055569          0.138726348 
                   1                    7           0.04716306         0.2699547256         0.1163036272         0.1435484025       0.003219461155        1.8732708e-13      8.530142941e-27          1.611133999          1.399641206         0.9253384802          0.746181712         0.6051595721        0.04975758592         0.5587934446        0.01143054523 
                   1                    1           15.0746867       -0.01596040751       -0.00687616518      -0.008486945344     -0.0001903427024      -1.10752517e-14     -5.043236681e-28        -0.1066924177       -0.04253726672        -0.0781927936       -0.03830385057       -0.08049823578        -0.0174528242        -0.1791533915      -0.005345921671 
                   0                   48          -1.35591522         0.2080432647         0.1710833326         0.3268646972         0.3797685613      0.0008037374085      1.028614164e-07          2.699951995          3.027264989         0.8565851063          2.238074053       -0.04040064399         0.6674714286       -0.05029852067         0.1582185845 
                   1                    8           1.13214498         0.0162933548        0.01339875839        0.02559911032        0.02974238999      6.294642023e-05      8.055812601e-09        0.09348259199         0.2169572117        0.00847514085          0.194003944         -0.215479163       -0.06386964349        -0.3254815064         0.4316464519 
                   1                    1          15.06467099      -0.009101824798      -0.007484839854       -0.01430022362       -0.01661475037     -3.516324879e-05     -4.500153332e-09       -0.01504768121        0.01219603639       -0.07958947257       -0.07344098436        -0.2163013618        -0.1094715673        -0.3891624527        -0.4782821839 
                   0                   49           -3.5963045         0.8384650068         0.2095869159          0.107384718      9.718187969e-07      6.664299129e-32      6.722826716e-64          1.960553604          1.683239092          1.547332294         0.4698974599         0.6992339299        0.04024764256         0.2904933387       0.001306683093 
                   1                   14           2.55844973        -0.3049119591       -0.07621732167        -0.0390509854     -3.534067264e-07     -2.423505438e-32     -2.444789285e-64         -0.716815515        -0.6519071302        -0.5678708841        -0.1690598385        -0.3119681214      -0.004648212005         0.3096278058     -0.0003576550081 
                   1                    1          15.02581424      -0.005016164342      -0.001253865582      -0.000642435151     -5.813960936e-09     -3.986954659e-34     -4.021969119e-66      -0.008531392821        -0.0124162893      -0.004900114127      -0.004182644079       0.009881184431      -0.001187131974        0.01897534691      7.784797343e-06 
                   0                   50          -2.03466936         0.4554520895         0.2078445948         0.2724160579        0.01048894756      6.607719398e-12      5.904814207e-24          2.832393449          2.924586861          1.686362322          1.452568874         0.2319363004         0.4812374968        -0.2603103476         0.1590978945 
                   1                   15           2.43661846        -0.2641299583        -0.1205351461         -0.157982022      -0.006082846795     -3.832009314e-12     -3.424374081e-24         -1.752930802         -1.582363625        -0.9754588805        -0.8396649554        -0.4813269234       -0.07185841418        -0.4879505203       -0.02827271426 