ITEM: TIMESTEP
0
ITEM: NUMBER OF ATOMS
4
ITEM: BOX BOUNDS pp pp pp
0.0000000000000000e+00 4.2600002000000003e+00
0.0000000000000000e+00 2.4767999999999999e+00
0.0000000000000000e+00 3.0000000000000000e+01
ITEM: ATOMS id type c_1[1] c_1[2] c_1[3] c_1[4] c_1[5] c_1[6] c_1[7] c_1[8] c_1[9] c_1[10] c_1[11] c_1[12] c_1[13] c_1[14] 
1 1          13.94856604          12.58879811          6.125239219           0.39966956      0.0001954893636      1.702970975e-08           48.5463589          43.43381369          35.95858464          14.81059691          15.02985079          2.611755785          3.048613289         0.7193599549 
2 1          13.96074504          12.60154719          6.101394451         0.3410693073      0.0001193211897      9.576765308e-09          48.59445878          43.31150953          36.20426778          14.56161155          15.41701106          2.475899018           3.24527262         0.7389970557 
3 1          13.96287659          12.60369439          6.089284341         0.3219263535      0.0001342345009       1.67964258e-08          48.59566343           43.2551497          36.28793695          14.45876408          15.38935044          2.410261649          3.156372458         0.7268076467 
4 1          13.93808401          12.57828792           6.10651259         0.3824498156      0.0002104026821      2.424937024e-08           48.5444168          43.39464015          36.00095075           14.6759071          14.98317865          2.502323825          2.879077475          0.455001936 
