ITEM: TIMESTEP
0
ITEM: NUMBER OF ENTRIES
594
ITEM: BOX BOUNDS pp pp pp
0 4.26
0 2.4768
0 30
ITEM: ENTRIES c_2[1] c_2[2] c_2[3] c_2[4] c_2[5] c_2[6] c_2[7] c_2[8] c_2[9] c_2[10] c_2[11] c_2[12] c_2[13] c_2[14] c_2[15] c_2[16] c_2[17] 
                   0                   68            4.1658815                   -0                   -0                   -0                   -0                   -0                   -0      -0.002282492142      -0.006526327235      -0.001126277879      -0.001193431261       0.003247225556      0.0001194219272         0.0374295827     -8.945754471e-07 
                   1                    1          -3.75830722         0.8137120297         0.1388539779        0.02547174737      3.272168883e-11      3.518983774e-53     3.615938187e-106          0.816346122         0.5591907745         0.7278504204          0.097973406         0.4199631375       0.001329577024         0.1844245015      3.392281233e-06 
                   1                    1          15.04004821                   -0                   -0                   -0                   -0                   -0                   -0      -0.003870187643      -0.001203684233      -0.004383131051      0.0005567387771      -0.007320580053     -1.504043113e-05      -0.008863400196      1.651376577e-07 
                   0                   70            2.1185741        0.02115568285       0.002199874444       5.71701453e-05      7.260619781e-21      6.902668024e-92     6.545235422e-181       0.004528357408       0.003372648243       0.004323759569      0.0002236593696       0.003143011683      9.975112816e-10      0.0009872246855      1.015359406e-48 
                   1                    3          -4.88055102        0.06278423282       0.006528620716      0.0001696652261      2.154751733e-20      2.048521522e-91     1.942445382e-180        0.01344381229        0.01001078608        0.01283248043      0.0006682838146       0.009312044798      2.729905967e-09       0.003213770579      7.914259732e-49 
                   1                    1          15.04359771     -3.667846668e-05     -3.814011682e-06     -9.911820312e-08     -1.258803144e-23     -1.196743594e-94    -1.134774051e-183     -1.318152533e-05     -7.408537547e-06     -1.290846044e-05     -2.980352116e-07     -1.128491574e-05      6.952165828e-13     -1.133335195e-05      2.078819849e-50 
                   0                   71           2.85129744         0.2037573805        0.03354737252       0.005480603971      2.647398482e-12      4.101376789e-56      2.11492957e-111         0.1868553281         0.1515457827         0.1680130008        0.02077038589         0.1000689314      5.646256596e-06     -0.0008195186128      1.891152951e-21 
                   1                    4          -3.69013134         0.7572290365         0.1246730033        0.02036771603      9.838598224e-12      1.524205694e-55     7.859769678e-111         0.6951341627          0.560237133         0.6228632112        0.07958006749         0.3522670635      4.009202349e-05        0.07040495298      1.007914951e-21 
                   1                    1          15.00204341       0.005890652967      0.0009698590011      0.0001584449896      7.653664218e-14      1.185713484e-57     6.114289514e-113       0.003553816055       0.002948041086       0.002848520767      0.0007798868465       0.001284438463      3.827051719e-07       0.001100495493      1.253438118e-23 
                   0                   73           4.90459651       -0.03147987992       -0.00360299065     -0.0001462191334     -7.696347747e-19     -1.306566875e-83    -5.197614276e-165       -0.00958896246      -0.007097549831      -0.009084322079       -0.00055255813      -0.006460768177      -1.12169287e-08      -0.004132854875     -1.083370038e-29 
                   1                    2           -4.8917635          0.259396111        0.02968886047       0.001204854486      6.341837008e-18      1.076618993e-82     4.282865543e-164        0.07873350532        0.05813332872        0.07456372237       0.004562251525        0.05217550253      5.214596522e-08        0.02587479905      4.308865179e-29 
                   1                    1          14.90368222       0.005811151705      0.0006651081679       2.69918935e-05       1.42073745e-19      2.411908286e-84     9.594739607e-166       0.001808596221       0.001337778841       0.001714350424      0.0001031189207        0.00121546624      9.136830061e-10      0.0007674718719      7.956917919e-31 
                   0                   74            6.3785743      -0.008731826065     -0.0008908737866     -2.108501224e-05      -1.14181983e-21     -4.546917183e-94    -1.113701465e-184      -0.001715066352      -0.001291439756      -0.001636899281     -8.538564808e-05      -0.001168062734     -8.712737981e-11      -0.000348091958     -9.541860627e-53 
                   1                    3          -4.88055102        0.02397676318       0.002446254615      5.789743651e-05      3.135328561e-21      1.248540176e-93     3.058118209e-184       0.004708587152       0.003547986995       0.004493767244      0.0002346610981       0.003204241412      2.508911445e-10      0.0009483927951      1.316011781e-52 
                   1                    1          15.04359771     -1.400719369e-05     -1.429098746e-06     -3.382360667e-08     -1.831654844e-24     -7.293955374e-97    -1.786548657e-187     -3.549357575e-06     -2.009161746e-06      -3.50103704e-06     -5.313898847e-08     -3.429147466e-06     -1.857874835e-13     -4.561287955e-06      5.298312511e-55 
                   0                   75           7.11129764        -0.2668956899       -0.03534029261      -0.002635592881     -1.922959097e-15     -2.402623871e-71    -1.008168142e-141        -0.1298994382        -0.1044212945        -0.1215452993      -0.009155217403       -0.07931978509     -1.071133459e-06       -0.02749371254      2.338004727e-32 
                   1                    4          -3.69013134         0.4426874095          0.058617292       0.004371534758      3.189522399e-15      3.985119947e-71     1.672201387e-141         0.2153930636         0.1558074981          0.201627314        0.01508578006         0.1322381042      1.698783079e-06        0.05151998291      6.087302328e-32 
                   1                    1          15.00204341       0.003443763744      0.0004559969419      3.400714044e-05       2.48120036e-17      3.100113375e-73     1.300842623e-143       0.001260890586      -0.004680047027       0.001077160284      0.0002007070604     -0.0001930499804      1.391179236e-08      -0.005318642579      1.994624407e-34 
                   0                   42           -0.0941187         0.7091767466         0.1220831632        0.02302895094       3.74652031e-11      1.123147344e-52     4.151769392e-105         0.7261433119         0.5954649186          0.645131819        0.08969437747         0.3612138925       0.001375031652         0.1287225542      1.807667714e-06 
                   1                    1          -1.28150722         0.4123213341        0.07098017947        0.01338922606      2.178258467e-11      6.530073264e-53     2.413873696e-105          0.419101985         0.2711122899          0.373857786         0.0502173106         0.2218347139      0.0009487478485         0.1443543061      2.670114439e-07 
                   1                    1          15.04004821                   -0                   -0                   -0                   -0                   -0                   -0       -0.00385224432      -0.005033752269      -0.003960255958      0.0001152991104      -0.005519539601     -1.302008363e-05      -0.007009854006      1.169870527e-07 
                   0                   45          -1.40870276         0.2761825297        0.03227056421       0.001434398346       1.57846035e-17       5.28400514e-81     8.446881738e-161        0.08909072137         0.0657529282         0.0841341159        0.00542607621        0.05846378995      3.106754518e-07        0.03038301787      2.315318276e-28 
                   1                    4          -1.21333134         0.1193308544        0.01394322082      0.0006197639667      6.820091857e-18      2.283072896e-81     3.649664646e-161        0.03846167473        0.02857754363        0.03635836937       0.002301899799        0.02540497278      8.682424759e-08        0.01211016148      1.521271533e-28 
                   1                    1          15.00204341       0.001882877953      0.0002200049872        9.7790292e-06      1.076117377e-19      3.602377311e-83     5.758672505e-163      0.0005193578968      0.0004952396929      0.0004793672042      4.372892372e-05       0.000256588625     -2.688224822e-09     -0.0002554093303      6.648876966e-30 
                   0                   34            4.1658815                   -0                   -0                   -0                   -0                   -0                   -0     -0.0006623874915        -0.0936599941       -0.02073740336       0.006717761553         0.2485997764        -0.1235211482         0.4954749383      -0.003422284297 
                   1                    1          -1.28150722         0.5572350607         0.2433932895         0.3048959963       0.007813167168      8.180428237e-13      7.761829956e-26          3.240466171          3.272560143          2.000258206          1.597552682         0.5251612536         0.4265372236        0.02989638568         0.1497389005 
                   1                    1          15.04004821                   -0                   -0                   -0                   -0                   -0                   -0       -0.05760454546      -0.009254064428       -0.07148203989        0.02029358812        -0.1446367081         0.0282804149        -0.1083639931      0.0009656047629 
                   0                   35           0.64459631         0.5503042049        0.09104469026        0.01511247812      8.347103284e-12      2.310783668e-55     2.459923586e-110         0.5110028902         0.4143646844         0.4569045353        0.05955294706         0.2488928392        3.2635488e-05        0.04631761484     -9.884858233e-23 
                   1                    2           -2.4149635         0.5642085501        0.09334508483        0.01549431986      8.558006644e-12      2.369169436e-55     2.522077621e-110         0.5219979036         0.4248570633         0.4672476901        0.06029508868         0.2592857174      2.613970537e-05        0.02105199323      7.380950913e-22 
                   1                    1          14.90368222        0.02131118999       0.003525814767      0.0005852488309      3.232515805e-13       8.94878675e-57     9.526348961e-112        0.02124658536        0.01579652395        0.01958564893        0.00183702473        0.01475817827      1.360989383e-06       0.007558115298      1.650656457e-23 
                   0                   36            2.1185741         0.4496222336         0.1015304593        0.04103403763      4.663088887e-08      3.584520254e-37      4.193175928e-74         0.8628415046         0.5795034328         0.7172867171         0.1681450036         0.3277096167        0.02020842035         0.1777202704        0.01740776744 
                   1                    3          -2.40375102         0.7904089596         0.1784844669        0.07213538071      8.197431001e-08      6.301371937e-37       7.37135216e-74          1.515334118          1.336769542          1.256983007         0.2973294244         0.5498941722        0.03571658372         0.2016783276        0.02738430876 
                   1                    1          15.04359771     -0.0007795283298     -0.0001760274814     -7.114237783e-05     -8.084586616e-11     -6.214628366e-40      -7.26987943e-77       -0.01715209466         0.1203438669       -0.01501059084      0.0007995979448       -0.01373918053      0.0005016698109       -0.04835845259        0.00968600467 
                   0                   37           2.85129744         0.3082408092         0.1193158036         0.1297773428      0.0009356488818      3.667389034e-16       3.22828366e-32           1.53802788          1.680021952          1.006642936         0.6470316606          0.291700254         0.2012230143       -0.01527900577        0.09461618462 
                   1                    4          -1.21333134         0.5647689413         0.2186143368         0.2377823127       0.001714326632      6.719510721e-16      5.914967424e-32          2.820678079          2.619931183          1.851420845           1.18234342         0.4372526756         0.3557188638        0.07644957436         0.1915369889 
                   1                    1          15.00204341       0.008911282786        0.00344943575       0.003751880238      2.704973361e-05      1.060247047e-17      9.333010995e-34       -0.05538255518        -0.1772095871      8.315165881e-05        0.02116999466        0.01731078203        0.03874365343         0.0677307769         0.3033591385 
                   0                   38            8.4258817        -0.7091767466        -0.1220831632       -0.02302895094      -3.74652031e-11     -1.123147344e-52    -4.151769392e-105        -0.7200431677        -0.5749263561        -0.6415557257       -0.08747427669        -0.3800002874      -0.003609173953        -0.1649812504      -1.28172738e-05 
                   1                    1          -1.28150722         0.4123213341        0.07098017947        0.01338922606      2.178258467e-11      6.530073264e-53     2.413873696e-105          0.420920312         0.3130404169          0.374045959        0.05214011122         0.2143092638       0.002028531205        0.09348503093      2.518154113e-05 
                   1                    1          15.04004821                   -0                   -0                   -0                   -0                   -0                   -0      -0.004022660593      -0.002491195079      -0.004409486175      0.0004231015409      -0.006856954108      4.712822497e-07      -0.003032935652      9.679237248e-07 
                   0                   39           4.90459651        -0.1745409808       -0.04640860754       -0.02713292996     -7.840978739e-07     -8.788003435e-30     -5.166835002e-59        -0.4701976086        -0.3830178079        -0.3673759747        -0.1178029329        -0.1302079105       -0.02042235325        -0.3807780332      -0.002912170198 
                   1                    2           -2.4149635         0.8530186384         0.2268086672         0.1326043595      3.832051921e-06      4.294882893e-29      2.525141396e-58          2.274542873          1.989120883          1.765359618         0.5823855202         0.8359593353        0.05394881473        0.06373961986       0.004696126667 
                   1                    1          14.90368222        0.03222007583        0.00856697864       0.005008709456      1.447436175e-07      1.622255907e-30        9.5379214e-60        0.09341708946        0.07139282633        0.07735772484         0.0188096243        0.04455348248       0.004343655059        0.07958863236      0.0005360325837 
                   0                   40            6.3785743        -0.4764609833        -0.1044490564       -0.03920218447     -2.339655604e-08     -1.072191447e-38       -3.7016342e-77        -0.8592717399        -0.7126903283        -0.7150530815        -0.1625044408         -0.381168416      -0.004784188159       -0.07761790154     -1.550250764e-07 
                   1                    3          -2.40375102         0.7749850986         0.1698910617        0.06376410632      3.805554479e-08      1.743967342e-38      6.020873578e-77          1.392959677          1.152533713          1.158358002         0.2648266009          0.632203868         0.0104092957         0.2356964423      3.104217769e-07 
                   1                    1          15.04359771     -0.0007643167909     -0.0001675523714     -6.288634092e-05      -3.75316789e-11     -1.719960196e-41     -5.937991298e-80       -0.01334387481        0.04912509784       -0.01529224637       0.002132509666       -0.03987407713      0.0002475425912        -0.2078872019     -2.483215377e-10 
                   0                   41           7.11129764        -0.6863325499        -0.1747906369       -0.09328928111      -1.20856982e-06     -4.000552278e-31      -2.88502628e-62         -1.678332756         -1.462095235         -1.319776088        -0.4104502277         -0.672315965       -0.03746732672        0.03595110478      -0.004808632644 
                   1                    4          -1.21333134         0.5612507895          0.142935641        0.07628762862      9.883121032e-07      3.271465304e-31      2.359240105e-62           1.36805053          1.169678777          1.074354973         0.3380611208         0.5066644022        0.04801046234         0.2836272931       0.004955636758 
                   1                    1          15.00204341       0.008855771155       0.002255329258        0.00120371462       1.55942156e-08      5.161925581e-33      3.722558767e-64        0.01012751523        0.01610170985       0.003570252572       0.007605613033        -0.0240020029       0.001571667355      -0.009792990876      0.0001348608186 
                   0                   46           9.16459671        -0.1932188764       -0.02185536959     -0.0008414554473     -2.886795836e-18     -8.825939911e-84    -4.216257064e-166       -0.05628228613       -0.04122224978       -0.05342356045      -0.003127100265       -0.03789189965     -1.719161579e-08       -0.01756037738     -2.514318578e-41 
                   1                    2           -2.4149635         0.1395497908        0.01578475308      0.0006077301237      2.084950304e-18      6.374418956e-84     3.045136181e-166        0.04069927896         0.0300079727        0.03863403557       0.002259388899        0.02746738385      7.745770255e-09        0.01378515819      2.785362777e-41 
                   1                    1          14.90368222       0.005271051112      0.0005962190253      2.295507951e-05      7.875239047e-20      2.407734754e-85     1.150203691e-167       0.001581547593       0.001014070832       0.001506345428      8.229285878e-05       0.001118366784        3.6079476e-10      0.0009861182225      8.991553902e-43 
                   0                    8           -0.0941187         0.9092325462         0.1968793749        0.07160755061      3.252824998e-08      4.514180833e-39      3.503902196e-78          1.600265937          1.304631707           1.33754788          0.295913438         0.7412656341        0.00910304822         0.2837504093      4.178244324e-13 
                   1                    1           1.19529278                   -0                   -0                   -0                   -0                   -0                   -0     -0.0004155837681       -0.07505461497     -1.094906932e-05     -0.0003308160398      -0.000746778478      0.0008555223338        0.09274537391      2.126926285e-12 
                   1                    1          15.04004821                   -0                   -0                   -0                   -0                   -0                   -0       -0.01042585773        0.03869879873       -0.01065629212      0.0002867170383       -0.02058640744       0.000405397358       -0.07355506598      2.629462176e-13 
                   0                   10           -2.1414261        0.06895331641       0.007182895764      0.0001882926645      2.581762041e-20      3.260793983e-91      4.32228076e-180        0.01455837726        0.01087850024        0.01390310983      0.0007160587219        0.01007936555      1.504346045e-09       0.003441638217      7.943673125e-45 
                   1                    3           0.07304898        0.01226869478       0.001278035058      3.350245282e-05      4.593665994e-21      5.801850905e-92      7.69052834e-181       0.002589407377       0.001940431948       0.002473202913      0.0001269837807       0.001788054624      2.249215948e-10      0.0006016100064      1.846890737e-45 
                   1                    1          15.04359771      -3.88041637e-05     -4.042245936e-06     -1.059635672e-07     -1.452912232e-23     -1.835044202e-94    -2.432406429e-183       -1.4711961e-05     -6.004902484e-06     -1.479134922e-05       8.50383215e-08     -1.627911667e-05     -1.238353456e-12     -3.111992165e-05     -4.470225003e-48 
                   0                   11          -1.40870276         0.5823378812        0.08056178234       0.007114391838      2.068224575e-14      9.118321469e-68     5.741291264e-135         0.3215461021         0.2379566019         0.2995798222        0.02413560544         0.1970312935      4.739252374e-05        0.08088588027      3.873742136e-15 
                   1                    4           1.26346866         -0.007121858     -0.0009852520204      -8.70073716e-05     -2.529390962e-16     -1.115149689e-69    -7.021466822e-137      -0.003942823757       0.004539466911      -0.003672900164     -0.0002973419726      -0.002742836242     -2.399070374e-06       0.000872103842      5.679299413e-16 
                   1                    1          15.00204341       0.003970096006      0.0005492309888        4.8502458e-05      1.410014768e-16      6.216427407e-70     3.914132715e-137       0.001631723534      -0.002643579735       0.001433533317      0.0002166132577      0.0002281179128     -4.130809112e-07       -0.00180422051      1.040401516e-16 
                   0                    1           0.64459631          0.830756189         0.2197390277         0.1270899962      3.339007388e-06       2.46310074e-29      8.586940337e-59            2.2048741          1.905826857          1.717535117         0.5552659203         0.7999177665        0.04547725212         0.2627184261       0.002174835844 
                   1                    2            0.0618365         0.2674097009        0.07073115849        0.04090863038      1.074783407e-06      7.928403554e-30      2.764025328e-59         0.7071675341         0.6362572918         0.5516394894         0.1772176417          0.324109125       0.005803099951        -0.2779882738      9.126349304e-05 
                   1                    1          14.90368222        0.03217202926       0.008509657251       0.004921712447      1.293070636e-07       9.53865287e-31      3.325395578e-60        0.09337685991        0.06211230995        0.08096927112        0.01475573415        0.07388135836       0.003753097256          0.105891913      0.0001620822566 
                   0                    2            2.1185741         0.4471279005          0.209039072         0.2805517274        0.01337185733      2.158026966e-11      6.248362435e-23          2.901641644          2.928072387          1.708657379          1.487523518         0.2348530951         0.4470703299        -0.2516895396         0.1672209915 
                   1                    3           0.07304898         0.2450958338         0.1145860179         0.1537861079       0.007329863598      1.182935393e-11      3.425077252e-23          1.680478945          1.591004315         0.9363194938         0.8084303367         0.5753656366        0.06669765545         0.5021080066      -0.005304128122 
                   1                    1          15.04359771     -0.0007752038033     -0.0003624195301     -0.0004864039257     -2.318333221e-05     -3.741459009e-14     -1.083303976e-25       -0.06438657879       -0.01575247058       -0.07629446365        0.01405193064       -0.09682973887        0.02998889754        -0.1399051421      -0.004969313459 
                   0                    3           2.85129744           0.18882273         0.1642289888         0.3199683089         0.4440162856       0.002057981013      7.015373512e-07          2.565848161          2.936322812         0.7496876364          2.222052656       -0.09831632359         0.7106149185        -0.0879036912         0.1889046019 
                   1                    4           1.26346866      -0.009792569508       -0.00851710908       -0.01659393393       -0.02302720832     -0.0001067293229     -3.638255455e-08       -0.02790299433        0.06080830958       -0.05739443192       -0.09744859799       -0.07018689228         0.2023611265        -0.2060367769        -0.4423004313 
                   1                    1          15.00204341       0.005458890236       0.004747881907       0.009250326364        0.01283656987      5.949650477e-05      2.028153812e-08       -0.09433359096        -0.1024114942       -0.05058360009        0.08409083872         0.1219158192         0.1570898326         0.2055427009         0.2920016724 
                   0                    4            8.4258817        -0.9092325462        -0.1968793749       -0.07160755061     -3.252824998e-08     -4.514180833e-39     -3.503902196e-78         -1.573420564          -1.31016477         -1.315476673        -0.3021999428        -0.5963808718        -0.0464025061        -0.2297533769       -0.04048419385 
                   1                    1           1.19529278                   -0                   -0                   -0                   -0                   -0                   -0       0.003908772751        -0.1234279185      -0.001862305628       0.001534214604       -0.01269020376     -0.0005488902494        0.04455181094      -0.007518911357 
                   1                    1          15.04004821                   -0                   -0                   -0                   -0                   -0                   -0       -0.01321106605        0.06401823002       -0.01192951717       0.001267088936       -0.01005518563      0.0002608766216       -0.03643018193       0.004191658997 
                   0                    5           4.90459651        -0.1090595028       -0.09172712111        -0.1766758328        -0.2209394556        -0.0006469194     -1.242164482e-07          -1.43573355         -1.630126139         -0.486216808          -1.18099863        0.08831097398        -0.2408647704          0.074692436        -0.3946978546 
                   1                    2            0.0618365         0.1673367627         0.1407426139         0.2710846937         0.3390011169      0.0009926085793      1.905930046e-07          2.207842453          2.516248589         0.5857552485          1.944928737        -0.1065347564         0.6588638915        -0.1080994687        -0.1418527064 
                   1                    1          14.90368222        0.02013226599        0.01693272711         0.0326141672        0.04078518399      0.0001194206199      2.293022168e-08         0.1757269638        0.05407810086         0.1805353422         0.1510169242         0.6281690266         0.3470404538         0.7600993333          0.561136677 
                   0                    6            6.3785743        -0.4982127153        -0.2171837934        -0.2714898517      -0.006826257975     -6.573372303e-13     -5.617702481e-26         -2.952807168          -2.85123744         -1.752443037         -1.449800769        -0.6211840779         -0.361230048        -0.2518045417        -0.1539126169 
                   1                    3           0.07304898         0.2526858364         0.1101522839         0.1376954825        0.00346217319      3.333913461e-13      2.849212407e-26          1.490272375          1.608344072         0.8616271888         0.7611307496        -0.0507160838         0.3700167957         -0.445056771       -0.03839825475 
                   1                    1          15.04359771     -0.0007992099188     -0.0003483962503     -0.0004355115308     -1.095036902e-05     -1.054470146e-15     -9.011659891e-29       -0.06223877867       -0.02069680182       -0.08013048012        0.02199005952        -0.1440922373        0.01202283114       -0.03837246579     -0.0006748465049 
                   0                    7           7.11129764        -0.7041453778         -0.250061409        -0.2420049574     -0.0006134063322     -2.408190623e-18     -6.728097323e-37         -3.044612403         -2.927430323         -2.046642005         -1.227462999        -0.5556655746        -0.3899649342       -0.06153391909        -0.2280297109 
                   1                    4           1.26346866       -0.01629845444      -0.005788029875       -0.00560155175     -1.419816912e-05     -5.574102508e-20       -1.5573146e-38      -0.005004076082         0.1275040834       -0.05569760344       -0.01990997163       -0.06159725142       -0.02584688153       -0.09158532468        -0.2188421766 
                   1                    1          15.00204341       0.009085610651       0.003226550472       0.003122597815      7.914801802e-06      3.107296172e-20        8.6812858e-39        -0.0227041155       -0.08442776055      -0.003178718442         0.0218594382        0.01289341731        0.01783455073         0.0409904949         0.1227892074 
                   0                   12           9.16459671        -0.7438785524        -0.1196894763       -0.01811604584     -4.605539347e-12     -4.436580588e-57    -7.132127219e-114        -0.6370024363        -0.5120531591         -0.574053173       -0.06949204089        -0.3306404185     -0.0008074869526       -0.05964764036     -0.0003701308569 
                   1                    2            0.0618365         0.1686741055        0.02713953143       0.004107804717      1.044303841e-12      1.005992524e-57     1.617206431e-114         0.1450448755         0.1161396536         0.1300765748        0.01650148993        0.06934028384      0.0001618748611        0.02902340565      9.344154117e-05 