ITEM: TIMESTEP
0
ITEM: NUMBER OF ATOMS
24
ITEM: BOX BOUNDS pp pp pp
0.0000000000000000e+00 8.5199999999999996e+00
0.0000000000000000e+00 7.3785360000000004e+00
0.0000000000000000e+00 3.0000000000000000e+01
ITEM: ATOMS id type c_1[1] c_1[2] c_1[3] c_1[4] c_1[5] c_1[6] c_1[7] c_1[8] c_1[9] c_1[10] c_1[11] c_1[12] c_1[13] c_1[14] 
1 1          14.05498839          12.69357516          6.195960126         0.3713368246      0.0001396018305      9.497080759e-09          49.73511916          44.40775838          36.85095457          15.09837894          15.55006904          2.648310905            3.2631841         0.8050814994 
2 1          14.05755832          12.68086853          6.115047227         0.3485416843      0.0001031883801      5.325234327e-09          49.06196463          43.75854107          36.57431334          14.64152529          15.51458837          2.545421171           3.31606723         0.8075670121 
3 1           14.0850645          12.70886538           6.13171525         0.3498767431      0.0001083426674      5.842869644e-09          49.33393423          44.02627887          36.79546979          14.71992617           15.5692427          2.573530154          3.219601199         0.7966170478 
4 1          14.11068244          12.73285289          6.135346586          0.343702673      8.577009982e-05       2.87365955e-09          49.55747889          44.09199561          36.99998145          14.70890148          15.74316735          2.527853135          3.379927144         0.7894311145 
5 1          14.05213686          12.67817033          6.120840654          0.352114893      0.0001123414208      6.987298324e-09          49.10874923           43.7733248          36.58013392          14.67694248          15.54087992           2.53161226          3.394317802         0.7229808134 
6 1          13.99000801          12.62128593          6.105432535            0.3534208      0.0001336761431      9.475251969e-09          48.67660201          43.45950296          36.19590056          14.61906467          15.30982836           2.53706092          3.233464063          0.746353534 
7 1          13.97049147          12.60011693          6.069870427         0.3456582288      0.0001258052412      9.409743773e-09          48.39051995          43.13507403          36.06491624          14.41941121          15.25239063          2.470036879          3.099188958          0.700624269 
8 1          14.00474383          12.64763566          6.160943458         0.3453231173      9.519752371e-05        4.1922277e-09           49.2301295          43.99350332           36.5669234          14.89558461          15.39537195          2.627330819          3.155621637         0.8830490433 
9 1          14.09564246          12.73788692          6.249462442          0.433115092      0.0003049647429        5.0011477e-08          50.23484948          45.00170807          37.10005696          15.45980555          15.62459399          2.744582722          3.326622617         0.9461842908 
10 1          14.11748716          12.76071085          6.281053081         0.4286432548       0.000301799214       5.06262428e-08          50.54525829          45.30124327          37.26219357          15.63937781          15.55534301          2.840863594          3.256879854         0.9436855874 
11 1          14.14509557          12.78050575          6.234813415         0.3469417342      8.504646857e-05      2.738662091e-09          50.44095469          45.08497614          37.51394568          15.23975617          15.84793026           2.65924551          3.335298816         0.8871416127 
12 1          14.12090392          12.76454704          6.253446982         0.3908002212      0.0001904042061      2.110781104e-08          50.66029505           45.3097666           37.4804046          15.40509565          15.69337143          2.648181679          3.184422833         0.7093420792 
13 1           14.1051532          12.73615228          6.201390663         0.3602069804       0.000103563979      4.109217968e-09          49.89893496          44.61958682          37.04258002          15.11672082          15.68695332          2.645187135          3.331186258         0.8717625115 
14 1          14.06214898          12.69169785          6.154974816         0.4016894911      0.0003044359291      7.232546959e-08          49.41450304          44.08327209           36.6761858          14.90783298          15.64008762          2.538072098           3.38283856         0.7574747288 
15 1          14.04954011          12.68463668          6.172956403         0.3983680211      0.0003028330018      7.243658805e-08          49.48282986          44.26127259          36.66951783          15.01578295          15.42311511          2.698412974           3.15682153         0.7501242707 
16 1          14.06673546          12.70015289          6.161810601         0.3371860935      0.0001098370093      6.818254178e-09          49.53081677          44.21815399          36.90206692          14.84076002          15.64269069          2.609040997          3.338968485         0.8261113793 
17 1          14.04052605          12.65832452           6.06974892         0.3328516848      8.372602771e-05      3.408682879e-09          48.73456159          43.37806176          36.42370263          14.37739254          15.55720074          2.398492099           3.28832215         0.6140621474 
18 1          14.09076533          12.72393234          6.198592479         0.3744547144      0.0001241297562      5.837849263e-09          49.92177565          44.50621564          37.00963065          15.11847083          15.69742182          2.579089614          3.399239656         0.7524577299 
19 1           14.1107179          12.75347497          6.253899108         0.4031067232      0.0002081678815      2.246331232e-08          50.48228436          45.20397955          37.29346189          15.44852678          15.53829271          2.698941057           3.16321016          0.786956712 
20 1          14.06469731          12.70110166          6.184968488         0.3419516959      8.914666116e-05      3.589072263e-09          49.74339977          44.43718097          36.91815722           15.0087613           15.5389476          2.578274185          3.126256733         0.7343981576 
21 1          13.99991719          12.63833419          6.147586713          0.384475849      0.0001466217938      8.225203712e-09          49.17421127           43.9755222          36.42715781          14.88419753           15.3020026          2.522381284           3.05079936         0.6428398018 
22 1          14.03690449          12.66962998          6.154074743         0.3783914711      0.0001341197911      6.876329607e-09          49.22093665          44.03257338          36.52730959          14.91083467          15.32504235          2.644401011          3.130076751         0.8310221268 
23 1          14.01215163          12.63692807          6.062518601         0.2987564135      5.855258485e-05      2.125150131e-09          48.62612334          43.23995468          36.40866167           14.2848294          15.49633155          2.417589869          3.201514948         0.7239122461 
24 1          13.99483105          12.61129985          6.016694793         0.3345810824      0.0001078629264      8.207884359e-09          48.12911885          42.82582135          36.04169116          14.11443224          15.32076513          2.340341055          3.046191738         0.5642039017 
