ITEM: TIMESTEP
0
ITEM: NUMBER OF ATOMS
24
ITEM: BOX BOUNDS pp pp pp
0.0000000000000000e+00 8.5199999999999996e+00
0.0000000000000000e+00 7.3785360000000004e+00
0.0000000000000000e+00 3.0000000000000000e+01
ITEM: ATOMS id type c_1[1] c_1[2] c_1[3] c_1[4] c_1[5] c_1[6] c_1[7] c_1[8] c_1[9] c_1[10] c_1[11] c_1[12] c_1[13] c_1[14] 
1 1          14.09127805          12.73658633           6.25015638         0.4413748405      0.0002827994601      2.989706977e-08          50.33507304          45.07685603           37.1339386          15.48380184          15.48767606          2.737207985          3.092115036         0.7614517699 
2 1          14.04091583          12.68349928          6.215891663         0.3922141533      0.0001641248288      1.165038981e-08          49.68740566          44.48257453          36.72185968          15.26800616          15.45069674          2.710642733          3.195673697         0.9267690998 
3 1           13.9755459          12.61614692          6.138129053         0.3828060184      0.0001442165191      8.136445179e-09          48.90394212          43.69342138          36.26546385          14.83274505          15.28238232          2.581273372          3.232460915         0.7989316861 
4 1          14.00114694          12.64380965          6.164866822         0.3851309929      0.0001557621219      1.097893012e-08          49.18549235          44.05706717          36.45234396          14.97753057          15.29649989          2.639211459          3.168873501          0.855636025 
5 1          14.09584917           12.7242978          6.158860798         0.3295984779      6.990707909e-05      1.993179304e-09          49.67582795          44.30305209          37.02460246           14.8233237          15.80891782          2.489817882          3.339845394         0.7396620771 
6 1          14.12810821          12.75382927          6.188981846         0.3999931273      0.0002170250609      2.583409695e-08          50.05806981          44.71867506          37.14326418          15.07929055           15.6220124          2.582429899          3.076293489         0.5998972376 
7 1          14.16555136          12.79907273          6.254904948         0.3901583713      0.0002692892342      3.956375387e-08          50.77803982          45.41782161          37.60003401            15.412576          15.76023571          2.701539894          3.223946915         0.6989523753 
8 1          14.18172019          12.81098124          6.240987113         0.3388413003      0.0001285672353      1.116563551e-08          50.79732742          45.33354691          37.72971747          15.25459847          16.00195835          2.556463074          3.310992863         0.6078189549 
9 1          14.05180314          12.67529343          6.088593891         0.3018409943      5.418868014e-05       1.69386607e-09           48.9931511          43.52960911          36.69568921          14.40410025          15.64649369          2.429135507          3.333460646         0.7839269481 
10 1          14.02781509          12.66520693          6.160011227         0.3490556104      0.0001302047691      1.219353469e-08          49.34721783          44.03978813          36.66326282          14.87012236           15.4582475          2.583106327          3.254959207         0.8242466462 
11 1          13.96466537          12.60419804           6.12629696         0.3790994379      0.0001556256814      1.161703462e-08          48.66812642           43.4944516          36.14436587          14.76778641          15.26590883           2.59046642          3.195081475         0.8875635499 
12 1          13.95823064          12.58146397          6.034678891         0.3614222341      0.0001308666733      8.306406534e-09          48.02624407          42.67131973          35.84518693            14.248539          15.41376354          2.390925097          3.341402548         0.7167429699 
13 1          14.02103067          12.65690074          6.143561547         0.3607400558       0.000118198951      6.666282234e-09          49.17632792          43.89940531          36.54941853           14.8151892          15.47844607          2.559973738          3.222012556         0.8170703836 
14 1           14.1125406          12.74465186          6.195610474         0.3619830279      0.0001494572006      1.536487677e-08          50.02223893          44.66535731           37.1695748          15.06722325          15.64443459          2.632174834          3.285120888         0.7753573461 
15 1            14.164275          12.79333148          6.231740853         0.4015726017      0.0002002021975      1.909904157e-08          50.49535883          45.11244509          37.43666902          15.30474751          15.78499683          2.660420708          3.269071309         0.8022699554 
16 1          14.12075059          12.75435839          6.222016521         0.3908211143      0.0001577615318      9.813805617e-09          50.12220991          44.86088464          37.18687391          15.25263442          15.65900603          2.696627773          3.192831553         0.9323382178 
17 1          14.06689597          12.69936992          6.161170678         0.3505985664      9.184734264e-05      3.254576833e-09          49.56720215           44.1830986          36.86763586          14.87750758          15.68270151          2.565354261          3.366233299         0.7660123096 
18 1          14.00239584          12.61522245           6.00845047         0.3308677628      9.054339943e-05      4.623312491e-09          48.01074434          42.70978291          36.01433239          14.06238853           15.3923677          2.409295159          3.220337436         0.7113429494 
19 1          13.95683249          12.56376779          5.950138798         0.3138921676      7.754410548e-05      4.113189175e-09          47.30534082          42.02809412           35.5655391          13.75275515           15.2649609          2.326509224           3.23541959         0.7241627085 
20 1          13.97022942          12.59436068           6.02343692          0.295812874      7.256369884e-05      4.379741476e-09          48.10897092          42.72331828          36.08174234          14.07722221           15.4016602          2.364990886          3.272535959         0.7462390918 
21 1          14.04831949           12.6780714          6.135952102         0.3433855227      0.0001222512482        7.9971842e-09          49.32880566          43.98675986            36.715036          14.72481946          15.48350858          2.496609235          3.081544546         0.6321081113 
22 1           14.0419974          12.68657768          6.213091171         0.3968565265      0.0001760208644      1.284363863e-08          49.82567816          44.62092095          36.82678564          15.22952695           15.4213136           2.67775263          3.156655411         0.7861706497 
23 1          14.10037942          12.74459236          6.274645943         0.4017684326      0.0001810709689      1.341691186e-08          50.48836059          45.26465947          37.21136394          15.57831726          15.55188033          2.772135564          3.158835382          0.854942008 
24 1          14.12774694          12.77045709           6.26538226         0.3964741016      0.0001942440877      2.029416609e-08          50.59980894           45.3461598          37.41751706          15.48844672          15.70926713          2.747890845          3.283011665          0.899567519 
