ITEM: TIMESTEP
0
ITEM: NUMBER OF ATOMS
24
ITEM: BOX BOUNDS pp pp pp
0.0000000000000000e+00 8.5199999999999996e+00
0.0000000000000000e+00 7.3785360000000004e+00
0.0000000000000000e+00 3.0000000000000000e+01
ITEM: ATOMS id type c_1[1] c_1[2] c_1[3] c_1[4] c_1[5] c_1[6] c_1[7] c_1[8] c_1[9] c_1[10] c_1[11] c_1[12] c_1[13] c_1[14] 
1 1          14.08274685          12.70854796          6.163082051         0.3776261003      0.0001564499619      1.297488457e-08          49.47056931          44.17684053          36.75366735          14.93877368          15.62752031           2.61069816          3.303567585         0.8405495492 
2 1          14.08566362          12.71879811          6.185426507         0.4029400255      0.0004330655092      1.766887773e-07          49.78440138          44.43429662           36.9287176             15.06617          15.66325029          2.623705944          3.413288717         0.7765156511 
3 1              14.0955           12.7316022          6.199898334         0.3494848248      0.0001048426468      5.904527129e-09           49.9657344          44.63254304          37.11022191          15.08033568          15.70101399          2.630867631          3.347368361         0.8250085917 
4 1          14.07180385          12.70779301          6.186231039         0.3971220986      0.0001973188606      1.921218421e-08          49.70400132          44.44390074          36.85569061          15.07550003          15.55553636          2.656190567          3.240546652         0.8136353068 
5 1          14.01385817          12.64233593          6.126313775         0.3756396926      0.0001775535992      1.806626619e-08          48.93118865          43.65673447          36.31758513          14.75451408          15.36024289          2.570257976          3.249415669         0.7032760706 
6 1          13.97995003          12.60474262          6.052914001         0.3123181494      0.0001163442119      1.239888572e-08           48.2847574          42.99894096          36.10948199          14.26054931          15.38801391          2.448088551          3.234812016          0.720565357 
7 1          13.97642377          12.59787135          6.022507342         0.3246407428      0.0001524243438      2.131138679e-08          48.11851148          42.78508351          36.04355366          14.10706983          15.39064273          2.401173229          3.190511809         0.6503059851 
8 1          14.01689062          12.64166904          6.092832938         0.3838505885      0.0002405131715      3.198249947e-08          48.64458205          43.40954024           36.2449496          14.57172418          15.34666319          2.561628231          3.167178831         0.8057834193 
9 1           14.1202499          12.75717785          6.245888681         0.4255290182      0.0002444192259      2.370231382e-08          50.31580282          45.04994246          37.17956699          15.43377968           15.6860717          2.720866425          3.418852822         0.8599627381 
10 1          14.12914613          12.76295186          6.216075203         0.3701327937      0.0001485255563      1.218221644e-08          50.24985881            44.876817          37.31288069          15.17236083          15.82407217          2.634181292          3.449180633         0.8406562792 
11 1          14.13521574          12.76644776          6.203411519         0.3395528585      9.073909302e-05      4.454240453e-09          50.28711329          44.82967669           37.4029513          15.06395824          15.79299205          2.603734278          3.333279974         0.6756363607 
12 1          14.13354961          12.76688523          6.220405589         0.3688371014      0.0002187776227      4.058493703e-08          50.29799422          44.94173565          37.34705143          15.19342768          15.67370785           2.70141818          3.191770323         0.8100803162 
13 1          14.04731969          12.68250111          6.168521519         0.3495482412      0.0001059148235      5.462041361e-09          49.49239822          44.21247206          36.73634153          14.94044449          15.43926238          2.620569968          3.184817321         0.7356533525 
14 1            14.005407          12.64300111          6.140015574         0.4050581754      0.0002040222895      1.844175128e-08          48.99057776          43.79982817          36.37287927          14.85231971          15.42024118           2.61058208          3.256054399         0.8951133416 
15 1          14.01336475          12.64829997          6.128839603         0.3240892765      0.0001235772576      1.345008354e-08          48.97880763          43.66037741          36.52661311          14.67667033          15.53736541          2.534202075          3.354408021         0.8897503586 
16 1          14.04957391           12.6884107          6.188476809         0.3843407951      0.0001969698707      2.335615126e-08          49.61244849          44.33333252          36.74537146          15.08959761          15.47193003          2.700585878          3.338881183         0.7607384582 
17 1          14.07034064          12.70709282          6.191935378         0.3825740986       0.000420372405      1.763212883e-07          49.74999548          44.44310688          36.90898939          15.07955422          15.49390549          2.695362495          3.235007029         0.7982560171 
18 1          14.13451537          12.77083966          6.250756843         0.3761119736      0.0001564199369      1.315095366e-08          50.55016573          45.22148792          37.39143424           15.3946652          15.71945965          2.670983345          3.221522193         0.6858651824 
19 1          14.13913496          12.77545906          6.238018855         0.3857031403      0.0002448006269      4.262310755e-08           50.5046805          45.14390755          37.43594382          15.30961812          15.75349317          2.653806711          3.233494441         0.7867538487 
20 1           14.0919452          12.72235371          6.191754999         0.3745620985      0.0001724900815      1.580715659e-08          49.83806279          44.56119715          36.94094494          15.09036317          15.54677718          2.634531469          3.199806118         0.7317157358 
21 1          14.01999742          12.64889499          6.113429647         0.3990361447      0.0002188118135      2.328718917e-08           48.8401574          43.63778045          36.32727288          14.69825842          15.39304016          2.559649991          3.272196748         0.8583395543 
22 1          14.03213926          12.65885935           6.11578274         0.3380985735      8.850190008e-05      4.094096106e-09          48.95549871          43.65294146          36.46709448          14.63655008          15.52152949           2.49640742          3.275181298         0.7681183823 
23 1          14.00991151          12.64315985          6.115194488         0.3821031245      0.0001880622142      2.202299984e-08           48.9778678            43.703027          36.41080037          14.68038149          15.42546479           2.51988831          3.156559588         0.6427616273 
24 1          14.00623731          12.63364939          6.085244969         0.3055455226         5.501901e-05      1.680719651e-09          48.75100764          43.43835611          36.38802069          14.43589111          15.37492797          2.493542281          3.084887486         0.5690712839 
