ITEM: TIMESTEP
0
ITEM: NUMBER OF ENTRIES
3696
ITEM: BOX BOUNDS pp pp pp
0 8.52
0 7.37854
0 30
ITEM: ENTRIES c_2[1] c_2[2] c_2[3] c_2[4] c_2[5] c_2[6] c_2[7] c_2[8] c_2[9] c_2[10] c_2[11] c_2[12] c_2[13] c_2[14] c_2[15] c_2[16] c_2[17] 
                   0                  162          -4.28843003         0.1547962351        0.01712610068      0.0005964173763      9.008998453e-19      1.071109184e-85      9.34120897e-170        0.04294393447        0.03133605295        0.04091116035       0.002222805718        0.02953436065      8.113518752e-09        0.01457830789      3.566329726e-43 
                   2                   13          -3.70518741          0.117716852        0.01302377063      0.0004535535118      6.851012477e-19      8.145391989e-86     7.103646375e-170        0.03270086903        0.02385438925        0.03115161059       0.001694310859        0.02251983773      4.525858167e-09        0.01165202328       1.75625329e-43 
                   1                    1          14.96052199       0.003151289559       0.000348647383      1.214166385e-05      1.834021528e-20      2.180527961e-87     1.901651825e-171      0.0008652531008       0.000647573554      0.0008252282017      4.377314036e-05      0.0006047349325      1.954703238e-10      0.0002754894731      5.040599305e-45 
                   0                  163           -0.0377485        0.02002527503       0.002196030903      7.343001468e-05      7.935939815e-20      2.547792528e-87     4.448355111e-172       0.005032517593       0.003710459454       0.004776040609      0.0002805785286       0.003386047132     -4.849863128e-10       0.002021608458      5.006554952e-44 
                   2                    1          -6.15064142         0.1755345667        0.01924963989      0.0006436618618      6.956367664e-19      2.233305944e-86     3.899272723e-171        0.04455433709        0.03277374707        0.04231841298       0.002445097031        0.02992560761      8.207789505e-09         0.0149212339      1.359087312e-43 
                   1                    1          15.09168108     -0.0008522400471     -9.345916485e-05     -3.125050671e-06     -3.377394674e-21     -1.084295133e-88    -1.893140726e-173     -0.0002629318748     -0.0001680598219     -0.0002529040798     -1.096479466e-05     -0.0001972869173     -7.099309184e-11     -0.0001945104155       1.27143502e-45 
                   0                  164          -1.37781057       0.002412603341      0.0002441235791      5.544599244e-06      2.021551406e-22      1.708990708e-95     7.379340602e-187      0.0004559421158      0.0003409978644      0.0004358602429      2.193573832e-05      0.0003147029522      2.732146201e-11      0.0001028444647      3.947818025e-48 
                   2                    8          -6.08946788       0.007247365505      0.0007333376257      1.665575796e-05      6.072660877e-22       5.13374084e-95      2.21672488e-186       0.001369924504       0.001024895592        0.00130958356      6.591158085e-05      0.0009454549183      8.029218433e-11      0.0003080315317      1.206566287e-47 
                   1                    1          14.91637475      0.0001708439944      1.728715478e-05      3.926304278e-07      1.431523828e-23      1.210189814e-96     5.225542063e-188      3.234196875e-05      2.413789575e-05      3.092650653e-05      1.546153382e-06      2.239836979e-05      1.888706512e-12      7.573469709e-06      2.850763937e-49 
                   0                  166          -2.16102104         0.2525196837        0.03328423413       0.002438013817      1.536241272e-15      1.033143904e-71     2.003279048e-142         0.1210778643        0.09710073844         0.1135517857       0.008248898336        0.07554556272      1.802234523e-06        0.02771910436      1.961008824e-18 
                   2                   15          -4.90069328         0.4428370264         0.0583696726       0.004275479729      2.694065298e-15      1.811796877e-71     3.513096973e-142         0.2143054756          0.152450518         0.2011736972        0.01439301565         0.1348168034      4.094474877e-06        0.05655209719      4.543359255e-18 
                   1                    1          15.08208311      -0.001835386903     -0.0002419195466     -1.772019735e-05      -1.11658508e-17     -7.509192007e-74    -1.456041792e-144      -0.001595820467       0.005398970466      -0.001539401406     -6.192764977e-05      -0.001285380028     -1.436008433e-08     -0.0006579404454     -2.759307182e-21 
                   0                  122            0.6483967        0.00357758223      0.0005881940934      9.564681601e-05      4.442779894e-14      5.809263225e-58      2.42400832e-113       0.001070020299       -0.04708813848     -0.0002712321093        0.00141894613      -0.005535670255     -7.265504076e-05       -0.02339840093      7.101815936e-07 
                   2                   10          -4.99618217         0.7828327999         0.1287063719        0.02092906884      9.721520291e-12      1.271160662e-55     5.304121886e-111         0.6955663631         0.5324392307         0.6224927025        0.08094730297          0.361950889       0.001633537716         0.1623473645      1.505673807e-06 
                   1                    1          14.98311896        0.01211873929       0.001992454796      0.0003239950203      1.504951886e-13      1.967835873e-57      8.21111102e-113        0.01117512724       -0.02979906457        0.01027315956        0.00100305262       0.007971230146      2.616924065e-05        0.01273415311      1.129211621e-08 
                   0                  123           2.11883146         -0.200384566       -0.03106314749      -0.004142035446     -3.645257931e-13     -3.598314683e-60    -1.899790902e-119        -0.1516503333        -0.1230239072        -0.1372386528       -0.01585627023       -0.08152211965     -2.676120809e-06       0.003959737022     -1.018243631e-24 
                   2                   11          -4.96649048           0.69686469          0.108026337        0.01440449384       1.26768822e-12      1.251363065e-59     6.606782272e-119         0.5242458388         0.4203233449         0.4729382102        0.05642349792         0.2699154849      1.650904095e-05        0.05956491126      4.092356196e-25 
                   1                    1            14.980854        0.01116513288       0.001730792827      0.0002307881145       2.03108403e-14      2.004927944e-61      1.05853551e-120       0.008721104177       0.006999300644       0.007960655794      0.0008350428593       0.004690002458       1.38725101e-07      0.0003569697898      4.110564747e-26 
                   0                  124           2.85591638         -0.444841179       -0.09090772672       -0.02838180916     -3.436605898e-09      -1.47053421e-42     -8.328605858e-85        -0.6693070376         -0.412968999        -0.5639845906        -0.1182877296        -0.2626829807       -0.01350359086        -0.1345425539       -0.01101684206 
                   2                   12          -3.78149827          0.783667642         0.1601502901        0.04999965497      6.054198595e-09      2.590610158e-42      1.467233526e-84          1.172453934          1.039463713         0.9952417327         0.2081359701         0.4550928917        0.02400309561         0.1676635689        0.02412265399 
                   1                    1          14.95169247        0.02236092572       0.004569677946        0.00142667441      1.727485963e-10      7.391965448e-44      4.186557939e-86        0.03734994267       -0.02068516477        0.03367720173       0.004701799757        0.01974588215      0.0006879608344        0.01765442598      0.0008456670675 
                   0                  125           4.23156997        -0.5098510218       -0.08038510097       -0.01135980379      -1.62457518e-12     -1.302963003e-58    -9.403856138e-117        -0.4016476431        -0.3240349922        -0.3610577147       -0.04464706827        -0.1995663821     -1.400990528e-05       -0.04188676189     -5.276869945e-25 
                   2                   13          -3.70518741         0.5401889913        0.08516830358        0.01203575297      1.721243245e-12      1.380493988e-58     9.963419398e-117         0.4273749966         0.3459189598         0.3850094442        0.04661267617         0.2176907566      1.309017694e-05        0.02110062297      1.708008016e-24 
                   1                    1          14.96052199        0.01446090257        0.00227996231      0.0003221980711      4.607781957e-14      3.695593465e-60     2.667215355e-118        0.01219302223       0.009734603313        0.01116609757       0.001128932258       0.006739981875      2.914917744e-07      0.0007252856454      3.260292321e-26 
                   0                  169          -3.48649425         0.9087137221         0.2036310795        0.08075400923      7.780933594e-08      2.903617084e-37      1.377024058e-74          1.752435263          1.468866803           1.45608447         0.3471009336          0.630677596        0.05048965724         0.2516131644        0.04451292595 
                   2                    6           -0.0357903         0.0223950198        0.00501843644       0.001990162128        1.9175914e-09      7.155890848e-39      3.393640954e-76         0.0369556608         0.1568814155        0.03523583307       0.009636168414      -0.005662740729       0.001554846117        -0.0887266901       0.007990077655 
                   1                    1          14.90194352        0.03486913697       0.007813725963       0.003098690534      2.985697615e-09      1.114175118e-38      5.283912779e-76        0.07074407746         0.1211560804        0.06297915852         0.0120897985        0.02736408973       0.002041736774        -0.0288075328       0.004320584927 
                   0                  170          -2.16362556         0.6719991036         0.2491737716         0.2561261405       0.001112958119       4.69078133e-17      2.544501254e-34             3.198869          3.089685324          2.137319005           1.30008023         0.5504032556         0.4082439017        0.05628952459         0.2261737409 
                   2                    7          -0.09365114        0.03800299844        0.01409131411        0.01448448557      6.294018168e-05      2.652737996e-18       1.43897033e-35         0.1141072377        0.03888517918         0.1341623323        0.07273313795       -0.06149833663        0.04441458694        0.07801522916         0.2423402789 
                   1                    1          14.90486493        0.03712504969        0.01376577528        0.01414986366      6.148613184e-05        2.5914542e-18      1.405727105e-35         0.1663264432        0.08400780574          0.163865048        0.05049044608         0.1007197717        0.03863654523           0.10778916         0.1159521219 
                   0                  171          -0.08154911         0.1751179239        0.04434879327        0.02338355679      2.722106449e-07      5.635325279e-32      2.260810244e-63         0.4009445813         0.3324653611         0.3078398516         0.1071445816        0.09478937583        0.02002850114          0.306657843       0.003032809142 
                   2                    9          -3.67877065         0.8709475805         0.2205683652         0.1162979309      1.353837444e-06      2.802724476e-31      1.124412149e-62          2.108478366           1.83137554          1.653256439         0.5205009664         0.8090313389        0.04747770883         0.0810423928       0.004684096729 
                   1                    1          15.07207286      -0.002459655529     -0.0006229102774     -0.0003284386513     -3.823391706e-09     -7.915214313e-34     -3.175468445e-65         -0.020364382       -0.01386535168       -0.01904734915        -0.0015397753        -0.0152238809     -0.0005641725398       -0.01906333861      0.0002934708831 
                   0                  172          -1.50198108         0.4557069237        0.09640063342        0.03300256682      8.868462142e-09      1.237957935e-40      5.452033981e-81         0.7519643432         0.6792023041         0.6292752902         0.1381555551         0.3443055131       0.003919505516        0.07320491319      5.830545688e-07 
                   2                   16          -3.67453202          0.784396456         0.1659318989        0.05680645851      1.526505285e-08      2.130864744e-40      9.384444059e-81          1.320681066          1.022254034           1.11024828         0.2370053641         0.6305310534       0.006879736419         0.2853770471      9.085904836e-07 
                   1                    1           15.0378052       0.004966944043       0.001050711602      0.0003597090458      9.666114978e-11      1.349303132e-42      5.942404273e-83       0.002466423599       -0.04914436319       0.001529520079       0.001069602743       0.003346509878     -2.830283185e-05        0.03619296794      9.506004267e-09 
                   0                  173          -0.08609102         0.1163331933        0.09317922676         0.1762690881         0.1871847755      0.0002663812161      2.076032537e-08          1.157549727          1.422866176          0.351299263          1.278375808        -0.1394366347         0.3571431162        -0.1174871377         0.2025089121 
                   2                   17          -1.13960483         0.1852252753         0.1483596164          0.280654983         0.2980348997      0.0004241311761      3.305451243e-08          2.486907939           2.79522562         0.8027308576          1.944616673        0.03508696435         0.6139012598        -0.0035150692         0.2101230368 
                   1                    1          15.07649559      -0.002303295891      -0.001844867524      -0.003489974401      -0.003706095504     -5.274116039e-06     -4.110363586e-10        -0.7272035548        0.06958503282        -0.1162218952       0.006329766671        -0.1768303193        0.02339454532        -0.1754693302         0.1564720272 
                   0                  174          -4.16511124         0.7713036504         0.1291753775        0.02231168934      1.723340845e-11      2.040331802e-54     1.333229756e-108         0.7558509432         0.6120438586         0.6752265636        0.08917063542         0.3792870181       0.001526623073        0.06323893475      0.0002350984562 
                   2                   21          -1.23511366         0.2075985769         0.0347679212       0.006005254809      4.638421025e-12      5.491611225e-55     3.588425905e-109           0.20390687         0.1635799321          0.180709198        0.02560940437        0.09082005229      0.0003467713493        0.05306920761      9.097656658e-05 
                   1                    1          15.09786486      -0.005799887071     -0.0009713458526     -0.0001677747519     -1.295881626e-13     -1.534245823e-56    -1.002534089e-110       -0.01167333075      -0.005350945973       -0.01187684505       0.000212455171       -0.01546726271     -5.049929264e-06       -0.02260643573     -4.702832637e-06 
                   0                  175          -3.56356356         0.7001467892         0.1199751296        0.02230327496      3.206509878e-11       5.62054727e-53     1.062987772e-105         0.7208670867         0.5484005815          0.643951508        0.08548520713         0.3864751317        0.00235959808         0.1809591446      1.107754374e-06 
                   2                   22            -2.478899         0.4208359132        0.07211322538        0.01340578752      1.927330859e-11      3.378331772e-53     6.389280601e-106         0.4372074723         0.3466157927         0.3890262788        0.05342252472          0.223028006       0.001328698584        0.06047067624      2.307435564e-06 
                   1                    1          15.07214659      -0.001760877285     -0.0003017388406     -5.609299488e-05     -8.064409486e-14     -1.413574149e-55     -2.67342656e-108      -0.006856712101        0.06856099061        -0.0072052471      0.0003785740163      -0.009811003121     -3.859696462e-06       -0.02477991104     -6.994986557e-08 
                   0                  176          -2.20271299         0.6657738911         0.1669216841        0.08609448237      8.259271343e-07      7.315177103e-32      1.015908187e-63            1.5965782          1.380806577          1.261880014         0.3813860924         0.6645003286        0.02598791293        0.01013793491       0.001247115064 
                   2                   23          -2.48979867         0.5921685895         0.1484674896        0.07657622035      7.346159299e-07      6.506440347e-32      9.035934365e-64          1.441822161          1.222580285          1.142872522         0.3409485976         0.5543063677        0.03412976951         0.2867916586       0.001789479988 
                   1                    1          14.95694477        0.02421746909        0.00607176217       0.003131679529      3.004302979e-08      2.660889496e-33      3.695357455e-65        0.06095131595        0.04124802426        0.05183999532        0.01051609041         0.0503729626       0.001068369814        0.05941907296      0.0001912031986 
                   0                  177          -1.50853544         0.4966391812           0.21006805         0.2540636742       0.004747095845      1.235334934e-13       2.05791839e-27          2.874038748           2.74057555          1.727384212          1.353009076          0.687973356         0.2773874608         0.2865368708        0.08103375381 
                   2                   24          -1.24786368         0.2994654368         0.1266676548         0.1531963084       0.002862422428      7.448870923e-14      1.240891683e-27            1.7382329          1.812070977          1.091963677         0.8199163721        0.03964904753         0.3219764977        -0.4047257332         0.1142914708 
                   1                    1          15.01988621       0.009478912429       0.004009382919       0.004849088453      9.060361628e-05      2.357774437e-15      3.927766665e-29      -0.002484811496         -0.102945127        0.01416688007        0.02139552775      0.0007089502008        0.01220202045        0.00653508188        0.06853402707 
                   0                  130           0.69188608      -0.004536974961      -0.002025960321      -0.002597453493     -8.200610272e-05      -2.15382471e-14     -6.449711122e-27       -0.09213236927         0.1478156545       -0.06934356684       0.001894912939        -0.3728504454         0.1685416739        -0.4896009748       0.008224294297 
                   2                   18          -2.36313964         0.5416729023         0.2418809486         0.3101119543       0.009790771174      2.571467755e-12       7.70035932e-25           3.35153939          3.353308216          1.944731774          1.716317979          0.476060858         0.4848340878        0.01511464698         0.1826455598 
                   1                    1          15.04638382       0.003368748801       0.001504295585       0.001928634919      6.089034269e-05      1.599236158e-14      4.788974326e-27        -0.1121473134        0.07018634562      -0.009740353357       0.002758385166       0.002148448195       0.008000851925       0.007040944809        0.09352888021 
                   0                  131           2.07157012        -0.3341989171        -0.1196919259        -0.1172456004     -0.0003311196887     -2.092698262e-18     -1.059999882e-36         -1.573751566         -1.614879959         -0.982908057            -0.604319        -0.2787188551        -0.1841345783       0.004443008914        0.01254438888 
                   2                   19          -2.50223736         0.6132203434         0.2196222673         0.2151335138      0.0006075702789      3.839884216e-18       1.94498982e-36          2.634102623          2.499060323          1.806053727          1.105354779         0.4552003591         0.3587325391        0.05797349668         0.3041577715 
                   1                    1          15.00561607        0.01333877814       0.004777226864       0.004679587431      1.321587785e-05      8.352521927e-20      4.230744785e-38        0.06210272341         0.1249625317        0.04655167587        0.01215987084        0.02331774383        0.01167857665       -0.01543180818      -0.004757024755 
                   0                  132           2.77837198        -0.4698832909        -0.2096007581        -0.2684309787      -0.008391475126     -2.109997125e-12     -5.983660953e-25         -2.877592455         -2.921515075         -1.662474683         -1.487509153        -0.2201429746        -0.5058779269         0.2261974337        -0.1459079337 
                   2                   20          -1.14742799         0.2707805049         0.1207870128         0.1546892118       0.004835770744      1.215931909e-12       3.44821526e-25          1.736908856          1.623500741          1.021883284         0.8299964789         0.6302732779        0.08044957073         0.4303147777        0.04057100685 
                   1                    1          15.00916029        0.01167215303       0.005206595278       0.006667969519       0.000208448744      5.241346058e-14      1.486373482e-26        0.01598009474       -0.04714160721        0.05196883766        0.01712907798        0.08544223853        0.02622663406         0.1308318772         0.1512006182 
                   0                  133           5.03350575        -0.9044344076         -0.188729394       -0.06232105097     -1.225312374e-08     -4.362751308e-41      -3.48632991e-82         -1.465337223         -1.191227519         -1.234988597        -0.2595030044        -0.7007148979      -0.008416802136        -0.2564581544     -3.763619725e-13 
                   2                    6           -0.0357903        0.02124741372       0.004433722869       0.001464076491      2.878563522e-10      1.024918791e-42       8.19025607e-84        0.04252956503        0.03393861901        0.03771730164       0.005388692798        0.02245414295     -0.0001110607688        0.01789386828     -1.241042694e-12 
                   1                    1          14.90194352        0.03308230965       0.006903324554       0.002279573055      4.481935121e-10       1.59580273e-42      1.275226204e-83        0.06165289909       -0.03065936272        0.05568627402       0.006815663199        0.05494570949      0.0003177800252         0.1339120099      1.055038921e-14 
                   0                  134           6.35637444        -0.5246538506       -0.06983591502      -0.005316321503      -4.58667486e-15     -1.164341797e-70    -1.182085941e-140        -0.2590532494        -0.1904216456        -0.2428509816       -0.01776836168        -0.1630081523     -2.622101971e-06       -0.06476494176     -3.374017461e-32 
                   2                    7          -0.09365114         0.0147972603       0.001969641911      0.0001499407524      1.293619054e-16      3.283892539e-72      3.33393786e-142       0.007868313727      -0.000188023313       0.007432991423      0.0004763651938       0.004875699016      2.023792731e-07       0.002756315126     -4.825866803e-32 
                   1                    1          14.90486493        0.01445541264       0.001924139063      0.0001464768074      1.263733748e-16      3.208027752e-72     3.256916922e-142       0.007655081597        0.01266799438       0.007308670916      0.0003805155903       0.005850362453      6.662995755e-08       0.005887077111      2.611954711e-33 
                   0                  138           4.35488876        -0.8456485165        -0.2075652358        -0.1021084604     -6.466451565e-07      -9.26132213e-33     -1.320207477e-65          -1.91371849         -1.637131453         -1.517335871        -0.4525487388        -0.7401804753       -0.04441836177        -0.2486134302      -0.002802725245 
                   2                   21          -1.23511366         0.2988750133        0.07335915739        0.03608788625       2.28541854e-07      3.273201242e-33      4.665969602e-66         0.6938345395         0.6100760743         0.5557445913         0.1571788081         0.3313398307       0.006263802319        -0.1767805718       0.000396133443 
                   1                    1          15.09786486      -0.008349967287      -0.002049507443      -0.001008223024     -6.385000148e-09     -9.144666526e-35     -1.303578145e-67       -0.03575669812       -0.01987039429       -0.03351839099      -0.002687862469       -0.03355667244     -0.0009389055898       -0.06075119686      0.0001204757096 
                   0                  139           4.95643644        -0.6926237865         -0.116979491       -0.02076222736     -2.017659092e-11     -6.465837792e-54    -1.464977394e-107        -0.6592176164        -0.5263633809        -0.5864320177       -0.08077069347        -0.3313514976      -0.002219630635        -0.1249596614     -1.310347848e-05 
                   2                   22            -2.478899         0.4114751603         0.0694953823        0.01233446064      1.198654471e-11      3.841236316e-54     8.703163535e-108         0.3937732416         0.2798381567         0.3521395915        0.04630593769         0.2116260104       0.001429385273         0.1292076559      1.006970929e-06 
                   1                    1          15.07214659      -0.001721709675     -0.0002907851642      -5.16103091e-05     -5.015454633e-14     -1.607264391e-56    -3.641610066e-110      -0.004617052876        0.03883666415      -0.004629772604      1.192870124e-05      -0.005257628966     -2.073852301e-06       -0.01908502145     -3.252520986e-07 
                   0                  140           6.31728701        -0.1981317808       -0.02217508061     -0.0008139545556     -1.891695733e-18     -1.229806649e-84    -8.692132586e-168        -0.0543395112       -0.03983140371       -0.05154341189      -0.003058579029       -0.03645359194     -8.200017107e-09       -0.01909247514     -1.287831108e-41 
                   2                   23          -2.48979867        0.08971705581        0.01004121064      0.0003685708876      8.565883323e-19      5.568749816e-85     3.935928609e-168        0.02466850169         0.0181478968        0.02341436954        0.00137173744        0.01661649267      6.186532161e-09       0.008089702214      5.891569137e-42 
                   1                    1          14.95694477       0.003669090297      0.0004106477658      1.507316368e-05       3.50312425e-20      2.277409321e-86     1.609646832e-169       0.001022088646       0.000667552996      0.0009742741313      5.232903721e-05      0.0007311542396       1.32460759e-10      0.0006456374413      2.374082594e-43 
                   0                  141           7.01146456       -0.01857753392      -0.001889658939     -4.405501819e-05      -2.06802692e-21     -4.765551131e-94     -6.32535656e-185      -0.003581143205      -0.002666941244      -0.003428456376     -0.0001668041254      -0.002512361251     -3.083297414e-10     -0.0008656294826     -3.199979351e-47 
                   2                   24          -1.24786368        0.00385194144      0.0003918095699      9.134546649e-06      4.287931126e-22      9.881087537e-95     1.311525155e-185      0.0007427908875      0.0005535740609       0.000711139702      3.457780693e-05      0.0005208783558      5.936898772e-11      0.0001786585416      1.000928308e-47 
                   1                    1          15.01988621      0.0001219246401       1.24018606e-05      2.891337601e-07       1.35724924e-23      3.127638517e-96     4.151341212e-187      2.331640939e-05      1.731788681e-05      2.232023059e-05      1.088299707e-06      1.635247142e-05      1.975349179e-12      5.843912627e-06      2.308512967e-49 
                   0                   43          -5.69880871        0.01546680354       0.001570888003      3.635063661e-05      1.588501948e-21      2.771107711e-94     2.695872152e-185       0.003069468552       0.002308217443       0.002925117798      0.0001577158245       0.002060093438      2.798685129e-10      0.0005524188531      1.280616327e-46 
                   2                    4           1.24681554       -0.00286528909     -0.0002910134757     -6.734105222e-06     -2.942765316e-22     -5.133591224e-95     -4.99421425e-186     -0.0005688934983     -0.0004281781769     -0.0005421175638     -2.925475211e-05     -0.0003817969132     -4.613360917e-11     -0.0001061618419     -2.890750256e-47 
                   1                    1          14.98267018      0.0001913825037      1.943778998e-05      4.497940266e-07       1.96557407e-23      3.428901972e-96     3.335807303e-187      3.775522062e-05      2.830909724e-05      3.593868907e-05      1.984580413e-06      2.498022233e-05      3.318673831e-12      6.174429495e-06      1.759730066e-48 
                   0                   44           -4.2725557         0.7622980692          0.125123499        0.02023612574      8.979159492e-12      9.630323032e-56     3.137597816e-111         0.7091535051         0.5783159231         0.6347708782         0.0819751062         0.3428001018      0.0005565958872        0.03420681738      0.0001967721591 
                   2                    5           1.18235873        -0.1720189699       -0.02823516978      -0.004566451949      -2.02622285e-12     -2.173163378e-56    -7.080253327e-112        -0.1610350229         -0.130220526        -0.1434614436       -0.01935685072       -0.07269628645     -0.0001081153951       -0.02989544284     -4.514028974e-05 