ITEM: TIMESTEP
0
ITEM: NUMBER OF ATOMS
4
ITEM: BOX BOUNDS pp pp pp
0.0000000000000000e+00 4.2600002000000003e+00
0.0000000000000000e+00 2.4767999999999999e+00
0.0000000000000000e+00 3.0000000000000000e+01
ITEM: ATOMS id type c_1[1] c_1[2] c_1[3] c_1[4] c_1[5] c_1[6] c_1[7] c_1[8] c_1[9] c_1[10] c_1[11] c_1[12] c_1[13] c_1[14] 
1 1          13.96728645          12.60764057          6.101525304          0.347610539      0.0001694224368      1.674996609e-08          48.62900539          43.34621619          36.26421653           14.5623492          15.33299044          2.568385807          3.148651548         0.7562798883 
2 1          13.96581643          12.60617782          6.100154144         0.3471005615      0.0001679058943      1.653950329e-08          48.63241597          43.34542491          36.26223553          14.55421613           15.3397212          2.576387882          3.117900638         0.7104593786 
3 1          13.95813778          12.59866061          6.124918282         0.3847899318      0.0001599819095      1.132670357e-08          48.59444957          43.38671722          36.06976681           14.7775561          15.29475836          2.576718604          3.339104592          0.858587293 
4 1          13.95286578          12.59336238          6.120505725         0.3855451774      0.0001614984529      1.153716637e-08          48.60983509          43.35172993          36.05900432           14.7537563          15.28996435          2.544363368          3.312733426          0.770557748 
