ITEM: TIMESTEP
0
ITEM: NUMBER OF ENTRIES
3714
ITEM: BOX BOUNDS pp pp pp
0 8.52
0 7.37854
0 30
ITEM: ENTRIES c_2[1] c_2[2] c_2[3] c_2[4] c_2[5] c_2[6] c_2[7] c_2[8] c_2[9] c_2[10] c_2[11] c_2[12] c_2[13] c_2[14] c_2[15] c_2[16] c_2[17] 
                   0                  165          -2.04750206        0.02413058905       0.002518897421      6.669666317e-05      9.990293223e-21      1.751706056e-91     3.422897329e-180       0.005280128624       0.003964240663       0.005025509746      0.0002784212218       0.003577208146      1.501373628e-09       0.001017671737     -4.867982343e-47 
                   1                   15          -4.88942323        0.07039895703        0.00734867064      0.0001945818859      2.914583734e-20      5.110454581e-91     9.986014079e-180        0.01539149103          0.011555181        0.01464553702      0.0008156284748        0.01040141029      3.685625061e-09       0.003325227574      4.979149778e-46 
                   1                    1          15.02170321      0.0006193839231      6.465505517e-05      1.711969849e-06      2.564308313e-22      4.496278838e-93     8.785892345e-182      0.0001287197633      9.740617667e-05      0.0001219430933      7.408276794e-06      8.295015906e-05       3.07404439e-11       2.35549848e-05      1.518693519e-47 
                   0                  166          -1.32015477         0.2061662535         0.0336842762       0.005365333993      2.094192209e-12      1.289267567e-56     2.100342418e-112         0.1911373271         0.1554562314         0.1722180148        0.02082674918         0.1011723049      6.212844784e-06      -0.005827619274      4.278620099e-22 
                   1                   16          -3.73499632          0.749461225         0.1224500057        0.01950420944      7.612865014e-12      4.686780855e-56     7.635222423e-112         0.6842771531         0.5542063645         0.6127296398        0.07872361618         0.3383103416      3.617870484e-05        0.05631242411      2.044175288e-22 
                   1                    1          15.04648397       0.004357151473      0.0007118890274      0.0001133918501       4.42590022e-14      2.724759257e-58     4.438898173e-114      6.100129305e-05       0.001417627973     -0.0005792569234      0.0007041536046       -0.00384422383      1.441317643e-07      -0.005517214308       1.04309197e-23 
                   0                  120           0.65561851       -0.02918479236      -0.003379067544     -0.0001443035062     -1.148382436e-18     -1.032690494e-82    -3.236982932e-163      -0.009435066739      -0.006862890857      -0.008894969556     -0.0005918276257       -0.00620453861     -5.151426184e-08      -0.004026473248      1.460012973e-31 
                   1                   10          -4.90214682         0.2820171876        0.03265245522       0.001394427223      1.109699808e-17      9.979048852e-82     3.127946952e-162         0.0920586247         0.0676620915        0.08713351753       0.005389484821        0.06090863163       2.40956524e-07        0.03229681352      5.756857516e-31 
                   1                    1          15.06130036      0.0006354494498      7.357347571e-05      3.141964571e-06      2.500408357e-20      2.248508736e-84      7.04798238e-165      1.300659066e-05      0.0003774306202     -8.718122255e-06      2.369465017e-05     -0.0001775372537     -8.367711467e-10      -0.001339408689      1.132448575e-32 
                   0                  121            2.0963289       -0.03390353446      -0.003589497656     -0.0001017458048     -2.750504079e-20      -4.37833181e-90    -1.195132809e-177      -0.008048650405      -0.006023684961      -0.007683945543     -0.0003984676085      -0.005527181307     -1.517728595e-09      -0.001797764914     -1.038985652e-44 
                   1                   11          -4.84710151        0.09853685821        0.01043247635      0.0002957128837      7.994034687e-20      1.272513523e-89     3.473520799e-177        0.02339228602        0.01757172596        0.02233327112       0.001157077459        0.01603175304      3.572043591e-09       0.004964143671      8.847265926e-44 
                   1                    1            14.933194        0.00232370053      0.0002460191168      6.973514246e-06       1.88515678e-21      3.000846994e-91     8.191272044e-179      0.0005500677829      0.0004094146816      0.0005252266119      2.714266752e-05      0.0003789732002       7.25256624e-11       0.000142171335       2.86272545e-45 
                   0                  170            -5.677323         0.2108604448         0.0237309885      0.0008931921819      2.547544338e-18      3.732450412e-84     7.188769604e-167        0.05986352084        0.04368756128        0.05685766672       0.003288466017        0.04068062998      1.097118765e-08        0.02169093136     -9.684806736e-55 
                   1                   20          -1.21526568        0.08797384431       0.009900891033      0.0003726519216      1.062870133e-18      1.557229056e-84     2.999252413e-167        0.02497892462        0.01819628904        0.02373676636       0.001358706847        0.01701769232      6.032626274e-09       0.008288114199      6.239227719e-53 
                   1                    1          14.98817745       0.003207898668      0.0003610283875      1.358846612e-05       3.87567431e-20      5.678316156e-86     1.093654358e-168      0.0008298879967      0.0007623883576      0.0007785662961      5.610340976e-05      0.0004765600699      2.647918618e-10     -0.0002352763171      3.507380085e-54 
                   0                  171          -3.56554998          0.838890654         0.2147730161         0.1159419923      1.660263602e-06      8.529652223e-31      1.065352145e-61          2.090023841          1.792450119          1.635145259           0.51810817         0.7956424981        0.03980739847         0.2913724907       0.001622997532 
                   1                    6           -0.0368596         0.2805785082        0.07183378688        0.03877839274      5.552979787e-07       2.85285941e-31      3.563216662e-62         0.6930396498         0.6226232934         0.5423476696         0.1716946174         0.3144184794        0.00604684061         -0.229548531     -2.021522165e-05 
                   1                    1          14.96410412        0.02588288479       0.006626543286       0.003577240032      5.122528344e-08      2.631713737e-32      3.287006084e-63        0.05548143016        0.05625306522        0.04181139469        0.01560622432       0.007422385296        0.00153307993       -0.04406826557      0.0002216651929 
                   0                  172          -2.12474128         0.4820039754         0.2129576111          0.270022078       0.007716392111      1.306187407e-12      2.259070397e-25           2.97365724          2.982449927          1.764979622          1.451630297         0.3120992714         0.3987711968        -0.2501852343         0.1233654031 
                   1                    7          -0.00345665         0.2616433519         0.1155985137          0.146574479       0.004188643247      7.090299434e-13      1.226277751e-25          1.606902974          1.465274685         0.9206379926         0.7884859634         0.5731573647        0.06031586381         0.5133330013       -0.04109096946 
                   1                    1          14.94850752        0.02831866172        0.01251166973        0.01586431704      0.0004533528954      7.674102539e-14       1.32724736e-26         0.1388314396        0.06491716417         0.1074623639        0.06587814835        0.09557240209        0.05258614398         0.1808130007         0.1244543812 
                   0                  173          -4.25838936        0.02361848004       0.002420959904      5.863754498e-05      3.939237133e-21      3.529258582e-93     2.163408674e-183        0.00474375654       0.003562222055       0.004520916785      0.0002434959641       0.003204262252      7.739185231e-10      0.0009581097064      1.000315329e-47 
                   1                   13          -3.65687544        0.02657041351       0.002723541297      6.596630328e-05      4.431578974e-21       3.97035964e-93     2.433800268e-183       0.005334997232       0.004005220049        0.00508485633      0.0002733285326       0.003605734406       8.79567007e-10       0.001041757473      2.426138234e-47 
                   1                    1          14.94233298      0.0007308913577       7.49183973e-05      1.814582259e-06      1.219026106e-22      1.092155207e-94     6.694828371e-185      0.0001463444412      0.0001085949077      0.0001394743681      7.507329571e-06      9.909368708e-05      2.400371801e-11      3.144737284e-05      4.608143751e-49 
                   0                  174          -4.19092075         0.7332059982         0.1300625528        0.02694479132      9.710298635e-11      9.219099267e-51     2.550183027e-101           0.80897728         0.6483568462          0.712433677         0.1074247217         0.4007786335       0.003098134482         0.1395677544       8.56665194e-07 
                   1                   21          -1.20601142         0.4120766668          0.073097797        0.01514352013      5.457385107e-11      5.181321083e-51     1.433254671e-101         0.4510113406         0.3388445328         0.3991392248        0.05788133202         0.2410830055       0.001802097884         0.1551525779     -2.186044598e-07 
                   1                    1          15.05538321       0.003404351356      0.0006038938974      0.0001251074556      4.508592184e-13      4.280523232e-53     1.184076381e-103      -0.003296090325        0.03588590401      -0.004561590125        0.00139069045        -0.0120087421      1.298318097e-05       -0.05655393649      1.609092495e-08 
                   0                  175          -3.57354228         0.5216072741        0.08272054937        0.01192436795       2.01385414e-12      3.312311661e-58     5.860002392e-116         0.4343060484         0.3498460422         0.3901696629        0.04857711624         0.2167248076      2.035203674e-05        0.05031740542     -7.029462387e-25 
                   1                   22          -2.54472653         0.5373075192        0.08521041667        0.01228328837      2.074470633e-12      3.412011391e-58      6.03638696e-116         0.4450855377         0.3602903919         0.4008957546        0.04866104165         0.2298789019      1.940619256e-05         0.0171672899      2.468191126e-24 
                   1                    1          15.05160931       0.003383670462      0.0005366088499      7.735346805e-05      1.306388754e-14      2.148699162e-60      3.80138813e-118     -0.0008505592246      0.0004930531908      -0.001439427538      0.0006459842578      -0.004074873747     -6.079265168e-09      -0.004188879142       1.34565241e-25 
                   0                  176          -2.03930457          0.449620272         0.1000327203        0.03896698952      3.213465019e-08      6.066045599e-38       1.22781163e-75         0.8501007541         0.8322162155         0.7107492476         0.1649898672         0.3122164126        0.02144950731         0.1109409001        0.02590520722 
                   1                   23          -2.47123952         0.7909361692         0.1759695937        0.06854762415      5.652871702e-08      1.067090424e-37      2.159868422e-75           1.48227937           1.15172702          1.229139025         0.2909554297          0.536361324        0.03663031036         0.2388893097         0.0273406548 
                   1                    1          15.04928707       0.005586674006        0.00124293817      0.0004841771624      3.992831865e-10      7.537253407e-40      1.525594762e-77      -0.005922738153         0.2150945121      -0.008258294536       0.003575274157       -0.01858839279      0.0003736094255       -0.03713594251       0.002213399934 
                   0                  177          -1.33128627         0.3172061589         0.1247763016          0.138495093       0.001197448419      1.044955518e-15      2.500858809e-31          1.582144057          1.417472413          1.099674263          0.694129051         0.2554543889         0.2474538286        0.06388402952         0.3830503987 
                   1                   24          -1.17623558         0.5464469201         0.2149505103         0.2385836936       0.002062828801      1.800131266e-15       4.30819691e-31          2.844632731          2.848469993          1.805028662          1.222038235         0.4298097313         0.3736642835        0.02283306041        0.07577630614 
                   1                    1          15.02239811        0.01227071194       0.004826810613       0.005357504399       4.63217507e-05      4.042275912e-17      9.674250385e-33       -0.01720103675        -0.3052707934      -0.005612417834        0.02902441878       -0.03701271393        0.02526538367        0.06689556786         0.1124060438 
                   0                  126           2.09992118        -0.4617052214        -0.2064188164        -0.2649734969      -0.008459151878      -2.33325498e-12     -7.428042361e-25         -2.907825213          -2.76876958         -1.749749291          -1.38978403        -0.7748770696        -0.2846058543        -0.3841753148        -0.1292523325 
                   1                    3          -0.09221664         0.2801179913         0.1252349368         0.1607602432       0.005132193708       1.41559304e-12      4.506616363e-25           1.73123166           1.83777038         0.9978378912         0.8808387145        -0.1009135477         0.3378098054        -0.5699177736        0.03714950009 
                   1                    1          14.94059649        0.02994039541        0.01338572903        0.01718284937      0.0005485542297      1.513055808e-13      4.816894311e-26         0.1304532849        0.08551652181         0.1297009027        0.06275368213         0.1887818123        0.07017241174          0.250142353         0.1339581013 
                   0                  127           0.01456829       0.002350603905       0.000424882045      9.323204964e-05      5.481363642e-13      4.374281111e-52      1.72783522e-101       0.004883359506       -0.02836434068       0.007144448211      -0.002376630657        0.01716043053      9.547208651e-05         0.0897005774      -3.49626387e-05 
                   1                    9          -3.61853089         0.8525221582         0.1540971481        0.03381360339      1.987992938e-10      1.586473827e-49      6.266550515e-99          1.012104913         0.8012966651         0.8927879967         0.1328140296         0.4949992541       0.005092519965         0.2131334681       5.63474979e-05 
                   1                    1          15.00139924        0.01311205163       0.002370061284      0.0005200635657      3.057593962e-12      2.440045286e-51     9.638146422e-101        0.01148223964         0.0443878806       0.009620505256       0.002074024514       0.001786948411      7.582414448e-05       -0.04209614108      2.770404901e-06 
                   0                  128            2.7864669        -0.3085682362       -0.04371962057      -0.004222940964     -2.565069548e-14     -2.621307441e-66    -8.323691353e-132        -0.1915467567        -0.1435580429        -0.1784123359       -0.01444036554        -0.1167837409     -4.220877792e-05       -0.03476610988     -4.592854545e-15 
                   1                   12          -3.59818159         0.5327700545        0.07548574968       0.007291277014      4.428816978e-14      4.525916619e-66     1.437158131e-131         0.3297875641         0.2464394727           0.30740114         0.0246108102         0.2030870842      7.195200807e-05        0.08002729133      6.431838885e-15 
                   1                    1           15.0662367      0.0009769489739       0.000138419427      1.337013133e-05      8.121192558e-17      8.299245724e-69     2.635339861e-134      -0.001291659807         0.0165661876      -0.001449948087      0.0001722889636      -0.002361666551     -2.542268011e-07      -0.001833568132      2.702723284e-17 
                   0                  129           0.08746602       -0.01334676841      -0.005921832097      -0.007541955803     -0.0002242789072     -4.524624091e-14     -9.743974038e-27       -0.03817615645        -0.1591458139      -0.007252699814       -0.06822260232         0.3699490536        -0.1611327477         0.6007076575       -0.03654407577 
                   1                   17           -1.2739204         0.5451707971         0.2418870117           0.30806364        0.00916104235      1.848157432e-12      3.980087113e-25          3.372791971          3.316840128           2.02468649          1.618853326         0.5286078917         0.4438940117        0.04312724963         0.1061257876 
                   1                    1          14.93765269        0.03069505327        0.01361909836        0.01734507771      0.0005157992402      1.040578313e-13      2.240930486e-26         0.1487065662        0.06212493646         0.1360440452        0.06237162787         0.1843961322        0.06293008196         0.2870960938         0.1109189142 
                   0                  130            0.7203909         -0.164917734       -0.04520685383       -0.02811577616     -1.401790187e-06      -1.72400641e-28     -2.022017264e-56        -0.4694984411         -0.374465262        -0.3553752469        -0.1319845586       -0.07926930514       -0.03095447854        -0.5109105596      -0.002579773862 
                   1                   18          -2.37312479         0.8424295521         0.2309247689         0.1436204593      7.160597291e-06      8.806535913e-28      1.032882915e-55          2.433554131          2.130951564          1.883968791         0.6309261968         0.8919142017        0.07195264661         0.0936866939       0.005203647689 
                   1                    1          15.03282318        0.01003549399        0.00275090555       0.001710887579       8.53010568e-08      1.049084021e-29      1.230428142e-57       0.003998013442        0.02375808548      -0.002979976731       0.008167311514       -0.02336278655        0.00158105382        -0.1247048856      0.0004104956772 
                   0                  131           2.15767316        -0.4537789819       -0.09801810112       -0.03542693438     -1.523794876e-08     -1.665318492e-39      -9.59086776e-79        -0.8177473837        -0.7170589696        -0.6896665239        -0.1442750661        -0.3786953426      -0.005155336506       0.007759866246     -7.128943467e-12 
                   1                   19          -2.53198319         0.7876369855         0.1701327844        0.06149152982      2.644893772e-08      2.890540305e-39      1.664713985e-78           1.41264639          1.124551065          1.192709793         0.2478833445         0.6873677163       0.008050747899         0.3073514767     -2.327940445e-12 
                   1                    1          15.01776973        0.01218673645       0.002632384517       0.000951429506      4.092319677e-10      4.472396999e-41      2.575733615e-80        0.01091116102         -0.020734534       0.007496282499       0.003865508642      -0.001301197849      0.0002723506323        0.03341805421      1.772693086e-13 
                   0                  132             2.842677         -0.665112472         -0.176858909        -0.1034161841     -2.992409475e-06     -3.372837689e-29     -1.997085659e-58         -1.819673817         -1.576688198         -1.428988228        -0.4474753349        -0.7716334087       -0.03754537781       -0.05117632117      -0.005515088877 
                   1                   20          -1.21526568         0.5624052262         0.1495482027        0.08744656714      2.530319004e-06      2.852001163e-29      1.688693957e-58          1.518499347          1.288224333          1.182775621         0.3855609071         0.5530205015        0.04724107327          0.357771624       0.007517795198 
                   1                    1          14.98817745        0.02050767464       0.005453160356       0.003188671911      9.226613917e-08       1.03996032e-30      6.157692821e-60        0.04075736956        0.04437319913        0.03056145106        0.01207731856         0.0139897178       0.002782544634       -0.05719392435      0.0009507195265 
                   0                  133           4.95445002        -0.7578566433        -0.1242277991       -0.02000262309     -8.551354895e-12     -7.806815047e-56    -2.080033712e-111         -0.691662754        -0.5604995578        -0.6207408029       -0.07809423102        -0.3483483194     -3.752777769e-05       -0.04263753433     -4.518190971e-23 
                   1                    6           -0.0368596         0.1848736592        0.03030447513       0.004879495555      2.086041317e-12      1.904416194e-56     5.074092138e-112         0.1666075622         0.1345370916          0.148011921        0.02044678406        0.07415074951      7.581474911e-06         0.0346991755      2.230894577e-23 
                   1                    1          14.96410412        0.01705427708       0.002795535707      0.0004501250723      1.924337235e-13      1.756791183e-57     4.680762724e-113        0.01351388547        0.01169718625        0.01179621522       0.001889680704       0.004550485329      6.743829047e-07       -0.00190830538      1.817104109e-24 
                   0                  134           6.39525872       -0.01855454545      -0.001887228871     -4.398770765e-05     -2.060097789e-21     -4.705025525e-94     -6.18297548e-185      -0.003626924639      -0.002712330498      -0.003463549544     -0.0001785056468      -0.002487779992     -5.474997773e-10     -0.0007719059065     -4.572634127e-47 
                   1                    7          -0.00345665       0.003404734792      0.0003463040264      8.071686752e-06      3.780252466e-22      8.633660225e-95     1.134567904e-185      0.0006654493171      0.0004977335758      0.0006353758543       3.28584632e-05      0.0004560902014      9.420334303e-11      0.0001484427857      1.162042647e-47 
                   1                    1          14.94850752      0.0003685074821      3.748181066e-05      8.736295607e-07      4.091511976e-23      9.344541013e-96     1.227986281e-186      7.174025708e-05      5.377197735e-05      6.847601989e-05      3.566517898e-06      4.897586173e-05      1.059024866e-11      1.484435073e-05      1.094496436e-48 
                   0                  135           4.26161064       -0.04043990294       -0.00419537543     -0.0001077999987     -1.237818983e-20     -8.102193431e-92    -4.954946596e-181      -0.008815484981      -0.006570477645      -0.008428731138     -0.0004225604032      -0.006131658086     -7.861658895e-10      -0.002159266591     -1.438127657e-52 
                   1                   13          -3.65687544        0.04605616123       0.004778025494      0.0001227711681      1.409726199e-20      9.227418955e-92     5.643085238e-181        0.01003585293       0.007475799514       0.009595700918      0.0004808941492        0.00698766358      8.769714375e-10       0.002477205158        1.0222392e-51 
                   1                    1          14.94233298       0.001266899749      0.0001314325627      3.377154279e-06      3.877834626e-22      2.538252092e-93     1.552283795e-182      0.0002744825093      0.0002037471546      0.0002623768223      1.322705516e-05      0.0001909577058      2.434174774e-11      7.203061005e-05        2.5489189e-53 
                   0                  136           4.32907925        -0.7219124841        -0.1249577439       -0.02398223078     -4.517064461e-11     -2.557836077e-52    -2.092186421e-104        -0.7627185554        -0.5891412681        -0.6817660318       -0.08990232834        -0.4083554474      -0.002159023872        -0.1959171533     -3.493881856e-06 
                   1                   21          -1.20601142         0.3979339995        0.06887944993        0.01321953176      2.489905032e-11      1.409935363e-52     1.153259056e-104         0.4175690405         0.3498991032         0.3705458439        0.05209451798         0.2054505124       0.001043955259        0.01591666964      4.946192434e-06 
                   1                    1          15.05538321       0.003287512397      0.0005690442281      0.0001092125192      2.057022941e-13      1.164811248e-54     9.527593646e-107      -0.002978345222         0.0194557385      -0.003858881168      0.0009664567706      -0.009438913655     -3.362695093e-07       -0.04972588062      3.036124121e-07 
                   0                  137           4.94645772        -0.1939743804       -0.02199196909     -0.0008556009774     -3.195653282e-18     -1.371692423e-83    -9.965256419e-166       -0.05834454759        -0.0424229196       -0.05541643734      -0.003202895334       -0.03957795248     -2.414736505e-08       -0.01978680004     -5.142675208e-41 
                   1                   22          -2.54472653         0.1462960427        0.01658640714      0.0006452967492      2.410171013e-18      1.034534421e-83     7.515825417e-166        0.04390023382        0.03215246805         0.0416796035       0.002429339307         0.0297343815       1.21623225e-08        0.01586268505      6.150848374e-41 
                   1                    1          15.05160931      0.0009212928923      0.0001044521692      4.063727887e-06      1.517794592e-20      6.514934996e-86     4.733057988e-168      0.0001272805847      0.0003962930889      0.0001059607919      2.327739187e-05     -4.131476087e-05      1.681362133e-10     -0.0008566549631      6.426988125e-43 
                   0                   45          -5.67296713          0.518615626        0.06874837118       0.005149760313      3.894991942e-15       5.66617676e-71     2.873957977e-141         0.2517999303         0.1854831598          0.235947942        0.01738150514         0.1572639805      7.093464706e-06        0.06520139181      3.400600298e-19 
                   1                    4           1.19365397      -0.002609350283      -0.000345898914     -2.591038113e-05      -1.95971695e-17     -2.850866652e-73    -1.445996357e-143      -0.001352504042      -0.004496906801      -0.001359243214      7.914529252e-06      -0.001575494726      8.383223528e-07       -0.00018076314     -1.189751316e-20 
                   1                    1          14.98953241       0.007772656095        0.00103035354      7.718108341e-05      5.837547375e-17      8.492077972e-73     4.307291541e-143       0.003081186943       0.007952898685       0.002766625438      0.0003441573074      0.0009837309482      7.791809963e-08      -0.002995266999      5.275436317e-21 
                   0                   46          -4.31295261         0.9058779015         0.1905269745        0.06424280367       1.51343912e-08       1.18808029e-40      2.549232569e-81          1.487957178           1.20513325          1.250029879         0.2679404793         0.6970177499       0.008687319104         0.2741015407      8.536449865e-12 
                   1                    5           1.28458294       -0.02496213174      -0.005250110893      -0.001770257698      -4.17039279e-10     -3.273842608e-42      -7.02459781e-83       -0.04187073772        0.04217650664       -0.03604449058      -0.006558694077       -0.03360343332      0.0009250434012       -0.07767919108      3.382733171e-11 
                   1                    1          14.97929149        0.01996768357       0.004199663479       0.001416062776      3.335976449e-10      2.618808919e-42      5.619109287e-83        0.02627275688        0.07052659347        0.02038564852       0.006608700613      0.0002859114274      0.0002467160791       -0.05305334803      6.924361801e-13 
                   0                   48          -1.45067281         0.2343572238         0.1802718327          0.335554641         0.3077127773      0.0002292023307      7.953783378e-09          2.850450908          3.171729364         0.9692507779          2.284252318       -0.00831646133         0.6308856554       -0.06684771886         0.1995389785 
                   1                    8           1.15113578       0.002193201907       0.001687050738       0.003140244908        0.00287969041      2.144960504e-06      7.443445775e-11      -0.009790309921        -0.1314713113       -0.02871987022        0.04193844469        -0.1581241647         0.1735311767        0.04182681485      -0.008329359934 
                   1                    1          15.00275712        0.01144716592        0.00880536792        0.01639014829        0.01503021396      1.119537545e-05      3.885021189e-10        -0.1135602631       -0.07674697777       -0.00251611556        0.09897485921        0.07737118092         0.1933668445           0.19925629         0.4944695865 
                   0                   49          -3.60400926         0.8396282366         0.2095053162         0.1069219168      9.348197609e-07      5.510150269e-32      4.600760177e-64           1.97768578          1.707552125          1.563403454         0.4738999121          0.731696259        0.05490723409         0.1930750102       0.002561695666 
                   1                   14           2.46817738         -0.301288198       -0.07517788996       -0.03836735147     -3.354462713e-07     -1.977236082e-32     -1.650914872e-64        -0.7081304353         -0.624226608        -0.5609605015        -0.1674445709        -0.3147822858      -0.007424321016         0.1759588411       -0.00029910895 