ITEM: TIMESTEP
0
ITEM: NUMBER OF ENTRIES
3672
ITEM: BOX BOUNDS pp pp pp
0 8.52
0 7.37854
0 30
ITEM: ENTRIES c_2[1] c_2[2] c_2[3] c_2[4] c_2[5] c_2[6] c_2[7] c_2[8] c_2[9] c_2[10] c_2[11] c_2[12] c_2[13] c_2[14] c_2[15] c_2[16] c_2[17] 
                   0                  121           2.90486812       -0.02710755137      -0.003034509397     -0.0001114854873     -2.610334273e-19     -1.747678201e-85    -1.280885024e-168      -0.007773261686      -0.005970056639      -0.007371582825     -0.0004395947173      -0.005246596713     -1.345184826e-08      -0.003556732358      1.452639497e-34 
                   3                    4          -6.10120178         0.2162326303        0.02420579933      0.0008893020193      2.082222176e-18      1.394095134e-84     1.021741633e-167        0.06179070675        0.04490808413        0.05863890693       0.003447673315        0.04142424172      6.896968666e-08        0.02066671022      2.847050599e-33 
                   1                    1          14.98119637      0.0008271772958      9.259697576e-05      3.401940023e-06      7.965342261e-21      5.332977918e-87     3.908575129e-170      0.0002456283007      0.0001896379146      0.0002342118966      1.251454696e-05      0.0001889816165      4.992843444e-10      0.0003118407884     -8.036201963e-36 
                   0                  122           4.24122564      -0.007095344515     -0.0007226609128     -1.695756667e-05     -8.467102649e-22     -2.474307278e-94     -4.28313636e-185      -0.001409990984      -0.001059287038      -0.001347921371     -6.779937973e-05     -0.0009714508947     -1.069051478e-10     -0.0002945645086     -4.166937279e-47 
                   3                    5          -6.06912537        0.02059822745        0.00209792968      4.922887317e-05      2.458052682e-21      7.183068273e-94     1.243421186e-184       0.004092238725       0.003075228857       0.003912069399      0.0001968022775       0.002818257267      2.882641659e-10      0.0008529663743       1.38544971e-46 
                   1                    1          14.90508701      0.0003354719477      3.416782136e-05       8.01763453e-07      4.003294569e-23      1.169866635e-95     2.025091373e-186      6.713266952e-05      5.027340984e-05      6.423429462e-05      3.166020096e-06      4.667100195e-05      4.861091889e-12       1.47268671e-05      2.123922227e-48 
                   0                  123            0.6500117         0.2191269336        0.03510980127       0.005239885669      1.183695714e-12      6.842617007e-58     5.814261387e-115         0.1905551478         0.1555062133         0.1719412869        0.02048154464         0.1010706195      8.688615355e-06       -0.01128591111      1.919130112e-24 
                   3                   10          -4.87244628         0.7266696137         0.1164312634        0.01737652981       3.92537646e-12      2.269151388e-57     1.928127686e-114         0.6328439692         0.5088450758          0.569634387        0.06952678933          0.319568427        3.2138614e-05        0.07106903443      2.834357547e-24 
                   1                    1          14.99034366       0.002123152546      0.0003401839414      5.077000995e-05      1.146899894e-14      6.629910563e-60     5.633521933e-117       0.001913796162       0.001614696457       0.001709155446       0.000225223903       0.001197685806      7.219690917e-08     -0.0009810544596     -2.288342332e-27 
                   0                  124           2.13511954     -0.0001916970214     -3.219453201e-05     -5.611241597e-06     -4.677570272e-15     -7.708065761e-58    -7.611271872e-112      -0.002202220121        0.06893751319     -0.0009910303322      -0.001256825442        0.00597841081       8.88180096e-05        0.03496302861     -5.363874751e-07 
                   3                   11          -4.95143347         0.8009572361         0.1345166617        0.02344514552      1.954403741e-11      3.220619185e-54     3.180176321e-108         0.7857200738         0.5994179207         0.7029457935        0.09159444133         0.4070350723       0.001575275714         0.1855455931      1.201096913e-06 
                   1                    1          15.08944868       -0.01357273574      -0.002279471388     -0.0003972930765     -3.311862895e-13      -5.45754644e-56    -5.389013404e-110       -0.01713835281       -0.04658719903         -0.016301314     -0.0009347592439       -0.01392103403     -2.731702856e-05      -0.006610595486     -1.847527505e-08 
                   0                  125             4.248894        -0.4437820312        -0.0939712767         -0.032254779     -8.865314149e-09     -1.365875103e-40     -6.804665536e-81         -0.758210089        -0.6298884162        -0.6396750375        -0.1331030648        -0.3530134412      -0.003019612953       -0.09843863044     -2.684777458e-14 
                   3                   13          -3.72245674          0.791256887         0.1675494153        0.05750980037      1.580672578e-08      2.435335381e-40      1.213261937e-80          1.338435875          1.087737478          1.129364149         0.2348739035         0.6375432591       0.004780503156         0.2301707183     -9.004175443e-15 
                   1                    1          15.06391493        -0.0124204935      -0.002630051577     -0.0009027410859     -2.481208543e-10     -3.822787233e-42     -1.904477831e-82       -0.03149177623        0.03520403656       -0.03038738207      -0.001316218686       -0.04043700919     -0.0001105883563        -0.1638386137      2.129873511e-16 
                   0                  128           5.01090887        -0.2517000865       -0.03300504301      -0.002368670916     -1.263702971e-15     -4.209487561e-72    -3.400824448e-143        -0.1207187255       -0.08610328933        -0.1133436744      -0.008081787057       -0.07562126876     -8.574303911e-07       -0.02910484303      -2.90333361e-33 
                   3                   14          -4.91098898         0.4338934208        0.05689577312       0.004083235492      2.178435505e-15      7.256528923e-72     5.862514287e-143         0.2072230462         0.1559990675          0.194661621        0.01376495287         0.1306386206      1.537485248e-06        0.05034298239       1.56324399e-33 
                   1                    1          15.00124727      0.0003039505502      3.985656549e-05      2.860383714e-06      1.526035285e-18      5.083335798e-75     4.106802172e-146     -5.595306857e-05      -0.002020155266      -8.59312918e-05      3.253180971e-05     -0.0004505057733     -2.389321677e-09      -0.003543644059      9.891397397e-35 
                   0                  129           6.35304369      -0.008336643595     -0.0008455712211     -1.943531351e-05     -7.958885029e-22     -1.074777496e-94    -7.856342928e-186        -0.0016078609      -0.001194939962      -0.001538834282     -7.540068096e-05      -0.001124996051     -8.191482116e-11     -0.0004035505871      -1.53415508e-54 
                   3                   15          -4.87381939       0.009726119145      0.0009865033029      2.267461391e-05      9.285399235e-22      1.253911584e-94     9.165766353e-186       0.001875662432       0.001393417089       0.001795161903      8.793379769e-05       0.001312715094      9.488400727e-11      0.0004722047919      2.481487246e-54 
                   1                    1          14.99499968      1.920951514e-05       1.94838762e-06      4.478336454e-08      1.833907384e-24      2.476530793e-97     1.810279361e-188      3.657213789e-06       2.79382975e-06      3.493928436e-06       1.78317386e-07      2.488087155e-06      1.851392357e-13      5.073234541e-07      1.737920849e-56 
                   0                  173          -3.64888975         0.4738407964        0.06107587407       0.004093154245      1.251150452e-15      3.992567341e-73     1.735833663e-145         0.2147289855         0.1591060415         0.2020394133         0.0139030435         0.1367163691      1.162429786e-06        0.05451379888       3.60981479e-33 
                   3                    6          -0.07052127       0.009753028045       0.001257119938      8.424907364e-05      2.575233189e-17      8.217870125e-75     3.572852849e-147       0.004350543996      0.0004671894425       0.004084995714      0.0002907067674       0.002596484352      6.657134371e-08     -0.0002786783063     -3.616558728e-33 
                   1                    1          14.95240096       0.004287118257      0.0005525895972       3.70331901e-05      1.131989898e-17      3.612312082e-75     1.570511497e-147       0.002193757511       0.002739092669       0.002113421183      8.831544444e-05       0.001768175025      1.621059555e-08       0.002401424504     -1.005593376e-34 
                   0                  174          -1.35945823         0.5435507338        0.08969425076        0.01476219589      7.589752436e-12      1.540427483e-55     1.112948948e-110         0.5110007721         0.4137327203         0.4575110151        0.05892166094         0.2493940487       0.000176190057        0.05089530525      5.779233615e-05 
                   3                   16          -3.60191506         0.5679852654        0.09372632517         0.0154258089      7.930938703e-12      1.609675157e-55     1.162979947e-110         0.5319359794         0.4311949381         0.4774057464         0.0600927978         0.2694055139      0.0002000650687        0.02831790447      6.348015074e-05 
                   1                    1          15.01948844      -0.002297655553     -0.0003791485883     -6.240161085e-05     -3.208281353e-14     -6.511575722e-58    -4.704571573e-113      -0.003003219078       -0.00198852254      -0.002791077808     -0.0002330043052      -0.002537250286     -1.322333603e-06       -0.00252602223     -3.922528179e-07 
                   0                  175          -3.62462826         0.1373026864        0.01486206168      0.0004677411802       3.05818353e-19      1.402260363e-87     2.260340377e-173        0.03449341879        0.02508251219        0.03281807827       0.001831998785        0.02355280415      2.987535491e-09        0.01220154987      8.240387905e-49 
                   3                   22          -2.49516885        0.06064952267       0.006564889372      0.0002066112474      1.350864839e-19      6.194082861e-88     9.984405149e-174        0.01522429139        0.01100302724        0.01448849301       0.000804508937        0.01040054702      1.515468995e-09       0.005059416652      1.774234753e-49 
                   1                    1          14.95468561       0.001193018968       0.000129136013      4.064189237e-06      2.657246595e-21      1.218419869e-89     1.964003047e-175      0.0003102618434      0.0002499251148      0.0002963919624      1.517401053e-05      0.0002245398699      1.610298282e-11      0.0001501195951      5.493271384e-51 
                   0                  176           -2.1575167         0.6825228028         0.1141183865        0.01960590392      1.447559748e-11      1.409460615e-54     7.214842892e-109         0.6597509698         0.5439749576         0.5914800028        0.07549940172         0.3437076883       0.001118965457         0.1266040849      9.026592062e-06 
                   3                   23           -2.5431061         0.4121773731        0.06891640337        0.01184005859      8.741852609e-12      8.511770911e-55     4.357063205e-109         0.3955304527         0.2354380559         0.3560098914        0.04379674919          0.218184794      0.0007783295689         0.1325122028      2.855414908e-06 
                   1                    1          15.07580745       -0.01130571403      -0.001890324892     -0.0003247638645     -2.397824144e-13     -2.334714472e-56    -1.195109528e-110       -0.01385197173       -0.01059248146        -0.0129077958      -0.001046564643       -0.01040204812     -1.883161342e-05       -0.01144915523     -1.129457725e-07 
                   0                  177          -1.45495739         0.8321427548         0.2091664767         0.1084908975      1.093390078e-06      1.202341492e-31      2.188107825e-63          2.022265854          1.723646676          1.604583668         0.4772017944         0.7916243662        0.04945145027         0.2936336214       0.003277636965 
                   3                   24          -1.31730742         0.3166869835        0.07960208771        0.04128817427      4.161093799e-07      4.575728118e-32       8.32724028e-64         0.7637702958         0.6751601844         0.6060381229         0.1798081898         0.3560506547       0.009147030204        -0.1635770202      0.0006250640475 
                   1                    1          14.91387531         0.0210642275       0.005294680781       0.002746255897      2.767724315e-08      3.043515619e-33      5.538809387e-65        0.06690927958        0.03214923082        0.06169008474       0.006345655146        0.07566483262       0.001703679661         0.1365294007      0.0002873052463 
                   0                  130           0.65323547         0.2354752772         0.1803808248         0.3351775908         0.3025842465      0.0002103120175      6.693558601e-09          2.844962958          3.160330459         0.9578754845          2.289916603       0.008806416007         0.6860437939       -0.07730399061         0.1388169377 
                   3                    2          -0.06506701          0.018061621        0.01383572038        0.02570907097         0.0232090691      1.613152768e-05      5.134149115e-10         0.1026895147         0.1832902336        0.02251578293         0.2127292795       -0.09839919418       -0.05302584657         0.1345030202         0.6268108877 
                   1                    1           15.0606314       -0.00889141183      -0.006811076808       -0.01265611419       -0.01142540814     -7.941261532e-06     -2.527449457e-10        -0.1438882911       -0.01253883733        -0.1339610448       -0.04080716286        -0.2560242561       -0.04127660378        -0.4796457421        -0.1052269201 
                   0                  131           0.03550734         0.4468853662        0.09647584662        0.03482009411      1.479370344e-08      1.531987431e-39      8.248812482e-79         0.7964386925         0.6497440693         0.6670691543         0.1458504685         0.2999249839        0.01711717582         0.1233180804        0.01179925624 
                   3                    9          -3.66853632         0.7915933457         0.1708931283        0.06167880375      2.620492433e-08      2.713696057e-39      1.461158849e-78          1.399130453          1.174223369          1.179466641         0.2570011137         0.5284197982        0.03102607587         0.1932874951        0.03041368054 
                   1                    1          15.03623491      -0.006711199935      -0.001448847388     -0.0005229184732     -2.221677171e-10     -2.300696045e-41     -1.238783679e-80       -0.01764905153         0.1001474847       -0.01565483728        -0.0014594649       -0.01482873372     -0.0002115027437       -0.08839268346      0.0006536625499 
                   0                  132           2.74202459        -0.1431630571       -0.03759933956       -0.02142667355     -4.941045073e-07     -2.055770254e-30     -3.504047178e-60        -0.3870207459        -0.3063882466        -0.3010040845       -0.09931263977       -0.07891442529       -0.02126882532        -0.3989122255      -0.004399845927 
                   3                   12          -3.62235089         0.8642157605         0.2269715559         0.1293439058      2.982703158e-06      1.240982897e-29      2.115247367e-59          2.291073215          1.992778126          1.791772576         0.5712192462         0.8588273482        0.05470854008         0.1150770201        0.00816666548 
                   1                    1          14.97481127       0.007041648567        0.00184936911       0.001053896921      2.430312935e-08      1.011155528e-31      1.723508095e-61        0.01883036706       0.008979717309         0.0142525259       0.005167901372       0.003080948886      0.0009411341763        0.07209526419     -0.0004367984286 
                   0                  133           0.06170491         0.4589502783         0.2080515607         0.2708715877       0.009820702449      4.745992111e-12      3.045080236e-24            2.8848021          2.905679893          1.715804694          1.474212294         0.2620064836         0.5006921579        -0.2657363662         0.1640385378 
                   3                   17          -1.15855035         0.2673361656         0.1211889591         0.1577813002       0.005720508431      2.764515881e-12      1.773743503e-24          1.742022369          1.680753877         0.9776049672         0.8596712826         0.6442956683         0.1029347123         0.5081696831         0.0524862798 
                   1                    1          15.03950604      -0.007704005627      -0.003492383533      -0.004546889575     -0.0001648517291     -7.966690872e-14     -5.111515645e-26        -0.1825099489        -0.0430098372       -0.05987780176       -0.01771371183       -0.04877213562      -0.002460157382         -0.140820959        0.04955877546 
                   0                  134           0.70723636         0.3404757119         0.1221061335         0.1198420165      0.0003443552285      2.348502729e-18      1.308297916e-36          1.588968814          1.480572904          1.049712387         0.5947642423         0.2760356829         0.1737780427        0.02869952797      -0.008827390081 
                   3                   18          -2.50129269         0.6085040275         0.2182301746         0.2141837057      0.0006154375662      4.197284328e-18      2.338212458e-36          2.700806735          2.610928237          1.863917577          1.068490018         0.5032263133         0.3317462343        0.05023034504          0.267025975 
                   1                    1          14.92321952        0.01945027227       0.006975527064       0.006846185405      1.967189646e-05      1.341623379e-19      7.473881334e-38        0.05737623161       -0.07570661555        0.09913687255         0.0202474042         0.1059185815        0.02324452543         0.1419739311         0.1280119538 
                   0                  135           2.10370665       0.006877662013       0.002915748516        0.00353541293      6.758932652e-05      1.945775801e-15      3.677429517e-29        0.02904919015         -0.239096346        0.02158551353       0.002984650453         0.3299133503        -0.1300798629         0.5752048784        0.01726917532 
                   3                   19          -2.49178124         0.5782070243         0.2451278167         0.2972231823       0.005682254127      1.635819314e-13      3.091625576e-27          3.356729305          3.284914263          2.065502933          1.555748912         0.5565734706         0.4037103907        0.03189362597         0.1430961566 
                   1                    1          15.06179701        -0.0129912347      -0.005507565396      -0.006678051213     -0.0001276696649     -3.675381264e-15     -6.946306735e-29       -0.06582948121       0.001068402266        -0.1120272655       -0.01075370572        -0.1794628799       -0.01713571691        -0.1201778342       -0.09551252894 
                   0                  136           2.81371366        -0.1015088887       -0.08418604644        -0.1613400858        -0.1927851718      -0.000461767426     -6.898279403e-08          -1.40709257         -1.560022518        -0.4280785245         -1.132996644         0.1530187692        -0.3821345684         0.1763425674        0.04944343832 
                   3                   20          -1.14680439         0.1784881816         0.1480285573         0.2836923831         0.3389838584      0.0008119488771      1.212959143e-07          2.305025267          2.626854732         0.7136914496          1.971699718       -0.01470737583         0.5660682785         -0.011511234         0.2561288362 
                   1                    1          14.91341503        0.01363422035        0.01130749358         0.0216704794        0.02589404283       6.20225373e-05      9.265460652e-09        0.03085253459       -0.02118762538         0.1769303212        0.07841651423         0.4914959145         0.1512084826         0.5942575998         0.5119805536 
                   0                  137           4.16063385        -0.4477935681        -0.2040997588        -0.2671808376       -0.01017472339     -6.106099173e-12     -5.135432856e-24         -2.936404953         -2.809966193         -1.705744105         -1.428779626        -0.6856537257        -0.2819198373        -0.3290139811       -0.09065227629 
                   3                   21          -1.21260076         0.2786364035         0.1269996418         0.1662514001       0.006331150186      3.799477335e-12      3.195487035e-24          1.695613917          1.840071267          1.033044529         0.8990055363       -0.07382960731         0.3484924354        -0.4812862721         0.1638305089 
                   1                    1          14.99035255        0.00317475901       0.001447022902       0.001894254031      7.213657601e-05      4.329091516e-14      3.640910207e-26        0.02215043473       -0.09463569351       -0.02132485057        0.02732241738        -0.0919433214      -0.009160157989       0.007838853261       -0.01842483443 
                   0                  138           4.87111025        -0.6414989497        -0.2487495339        -0.2711621453      -0.001994347052     -8.534557139e-16      -8.38402846e-32         -3.249780488         -3.152828266         -2.122391002         -1.372618398        -0.5101665037         -0.434500499       -0.03639357139        -0.1919729165 
                   3                    6          -0.07052127        0.02789571945        0.01081692685        0.01179154406      8.672460939e-05      3.711270481e-17      3.645812762e-33        0.07573576386        0.01132303563        0.09054670008        0.06115857549       -0.04324089926        0.06037038502         0.1305872972         0.3448173494 
                   1                    1          14.95240096        0.01226206339       0.004754774041       0.005183184503      3.812135621e-05      1.631355448e-17      1.602582335e-33        0.07239654792        0.06615368609        0.03540748177        0.03193763286       0.003793109265       0.002460189636     -0.0001544844227       -0.04884887788 
                   0                  139           7.16054177        -0.1683667391       -0.01875442022     -0.0006736962728     -1.312322096e-18     -4.245236949e-85    -1.269356316e-168       -0.04598795367       -0.03360591438       -0.04370944939       -0.00249229652        -0.0312746915     -2.255487443e-08       -0.01643804037     -5.202840723e-33 
                   3                   16          -3.60191506         0.1222709516          0.013619797      0.0004892503401      9.530318898e-19      3.082967363e-85     9.218293679e-169        0.03332114936         0.0241005709         0.0316580627       0.001819461575        0.02262681327      2.102230135e-08        0.01206497048      4.024121184e-33 
                   1                    1          15.01948844     -0.0004946193996     -5.509579933e-05     -1.979151273e-06     -3.855274332e-21     -1.247144515e-87    -3.729051607e-171     -0.0001838178916     -8.788215023e-05     -0.0001812046425     -2.875638835e-06     -0.0001724641264     -9.971073928e-11     -0.0002160604904     -1.882756705e-35 
                   0                  140           4.89537174        -0.6475720826        -0.1679771811       -0.09325475145     -1.708340602e-06     -2.587436907e-30     -1.247710325e-60         -1.675223772          -1.45721821         -1.317475027        -0.4075149489        -0.6903748204       -0.02564599849        0.05069418598      -0.001617260546 
                   3                   22          -2.49516885         0.5965030842         0.1547301209        0.08590047092         1.573617e-06      2.383385783e-30      1.149313068e-60          1.528757781          1.302780424          1.197255032         0.3779627185         0.5571562923        0.03443242268         0.3370533267       0.003218830375 
                   1                    1          14.95468561        0.01173363718       0.003043650817       0.001689722964      3.095415837e-08      4.688288255e-32      2.260780021e-62        0.02961661935        0.02735976536         0.0215536965       0.009105673405      0.0004321042622      0.0001634430715       0.007058642154      2.970367352e-05 
                   0                  141            6.3624833        -0.6922673374        -0.1178719326       -0.02147211254     -2.599981976e-11     -2.163296443e-53     -1.61347658e-106        -0.6885141193        -0.5173722062        -0.6155439315        -0.0809299262        -0.3657139398      -0.001549453813        -0.1799957784       -1.0433419e-07 
                   3                   23           -2.5431061         0.4242787539        0.07224168178        0.01315988876       1.59348427e-11      1.325847212e-53     9.888720669e-107          0.420860692         0.3467928973         0.3742385766        0.05157896805         0.2100529913      0.0008331061644        0.05592392729      2.145130334e-07 
                   1                    1          15.07580745       -0.01163764576      -0.001981534767     -0.0003609658091     -4.370806997e-13     -3.636698761e-55     -2.71240139e-108       -0.01707321127         0.0474054571       -0.01660849163     -0.0005240014789       -0.01698433503     -1.842166195e-05       -0.02786568736     -1.366917919e-08 
                   0                  142           7.06504261        -0.7382773793        -0.1191838015       -0.01824131234     -5.091338175e-12     -7.345090167e-57    -1.955032518e-113        -0.6379967838        -0.5155114688        -0.5732628064       -0.07123652633         -0.322597379     -3.525620021e-05       -0.04838563331     -6.539903213e-23 
                   3                   24          -1.31730742         0.2044868389        0.03301133082       0.005052448311      1.410190368e-12      2.034430841e-57     5.415016508e-114         0.1764847761         0.1417536499         0.1574489999        0.02092947869        0.08098101313      1.290039592e-05         0.0375291534     -6.031782198e-23 
                   1                    1          14.91387531         0.0136013083       0.002195727071      0.0003360602936      9.379788965e-14      1.353188363e-58       3.6017628e-115        0.01200932475       0.009503080562        0.01071107115       0.001430866083       0.006606340115      7.628122445e-07        0.00208299529     -1.589344193e-24 
                   0                   49          -0.00016214         0.4775980349         0.2113109153         0.2683333148       0.007771523806      1.395512365e-12      2.598335208e-25          2.887787977          2.951709132          1.717421362          1.478733426          0.263658627         0.4848748567        -0.2506325002         0.1853766082 
                   3                    1           1.25013594        -0.2689190616        -0.1189819239          -0.15108928      -0.004375878326     -7.857651169e-13     -1.463033377e-25         -1.735692544         -1.586651517        -0.9861881751        -0.8095916913        -0.5412679744       -0.08888966426         -0.503214652      -0.003230944804 
                   1                    1          15.04321287      -0.008614187007      -0.003811304921      -0.004839788241     -0.0001401709272      -2.51701297e-14     -4.686481885e-27       -0.05775513851        0.07449293317       -0.05020454848       -0.02689237656        -0.0338725284        0.01074048708       -0.08655765322       -0.02134834229 
                   0                   50           -2.0584781         0.9096485916         0.2016296368        0.07781572303      5.918059875e-08      7.836917396e-38       1.01862698e-75          1.701571717          1.408127069          1.410652592         0.3285798203         0.7792410997        0.01283423682         0.2571687713       2.57585332e-06 
                   3                    7           0.05282609     -0.0009373735173     -0.0002077750502     -8.018744675e-05     -6.098434771e-11     -8.075776615e-41     -1.049673428e-78      -0.004524851045        0.04294112193      -0.005179054885      0.0007106893264       -0.01571774462     -0.0001473716528        -0.1462472327      4.137648258e-07 
                   1                    1          14.91658072         0.0191243938       0.004239048584       0.001635992783      1.244209122e-09        1.6476285e-39      2.141554847e-77        0.04683209021      -0.002161087318        0.04401081995       0.003338259304        0.05161409442      0.0005066837127         0.1417578098      8.166196998e-08 
                   0                   51          -1.34726087         0.8250550846         0.2218840107         0.1327878642      4.713993475e-06      1.304182435e-28      2.371457908e-57            2.2769029          1.988674065          1.745968795          0.609850326         0.7907028602         0.0703815995         0.2539954077       0.006452198628 
                   3                    8           1.16822625         -0.265378396       -0.07136883822       -0.04271112448     -1.516252733e-06     -4.194893762e-29      -7.62777792e-58        -0.7349528096        -0.6638584364        -0.5692497877        -0.1894517875         -0.337280941      -0.008076503946         0.3026342169        0.00103144616 