ITEM: TIMESTEP
0
ITEM: NUMBER OF ATOMS
24
ITEM: BOX BOUNDS pp pp pp
0.0000000000000000e+00 8.5199999999999996e+00
0.0000000000000000e+00 7.3785360000000004e+00
0.0000000000000000e+00 3.0000000000000000e+01
ITEM: ATOMS id type c_1[1] c_1[2] c_1[3] c_1[4] c_1[5] c_1[6] c_1[7] c_1[8] c_1[9] c_1[10] c_1[11] c_1[12] c_1[13] c_1[14] 
1 1          14.09691269          12.72566223          6.177219617         0.3704298474      0.0001777910152      2.255891859e-08          49.77017658          44.38543431          36.98155719          14.97960833          15.70402258          2.607073992          3.383671733         0.8034949461 
2 1          14.14357452          12.77582259           6.23840181          0.404321052       0.000267866469      3.783955852e-08          50.47326659          45.11656921          37.33744821          15.35816787          15.75458678          2.709615192          3.304975425         0.6341286627 
3 1          14.12982084          12.76128056          6.215897618         0.4036925075      0.0002364970018      2.801500832e-08          50.22878458           44.8609132           37.2335766          15.22499509          15.72541379          2.690805574          3.281699348         0.7417231861 
4 1          14.07040308          12.69261705          6.119221379          0.328736347      0.0001029543596      7.897125145e-09          49.13467891          43.83230207           36.6914148          14.62749496          15.57751258          2.549413195          3.253236486         0.8656875104 
5 1           13.9617954          12.59220148          6.066230338         0.3677973395      0.0001561004391      1.242522467e-08          48.25463813          43.00661045          35.97176895          14.42284548           15.2633164          2.494614149          3.281176262         0.7958119037 
6 1          13.98764623           12.6109858           6.07349864         0.3614210793      0.0001673402873      2.012600312e-08          48.31768712          43.04517034          36.00683633          14.46368332          15.38375866          2.468050462          3.281891747         0.8127582842 
7 1          13.99138882          12.62232679          6.096897325         0.3887947235      0.0001818888311       1.75605902e-08          48.63823962          43.37763428          36.17937417          14.60765895          15.43127483           2.49642959          3.220249978         0.7869801059 
8 1          14.00370828          12.63669259          6.116275121         0.3617122134       0.000150900945      1.575801439e-08          48.86094686          43.60066717          36.33943466          14.67596258          15.37063133          2.580064763          3.236785329         0.7428829652 
9 1           14.1412315          12.77191342          6.242332282         0.3885669106      0.0001732088113      1.617450407e-08           50.3222007           45.0724848          37.25501813          15.37844095          15.69722499          2.764746558          3.191081168         0.9030579474 
10 1          14.11957501          12.74969665          6.187200161         0.3390128442      7.693251141e-05      2.261298756e-09          50.02748636          44.62241205          37.24134925          14.98037448          15.73520728          2.621705133          3.294563877         0.7714232001 
11 1          14.10060355          12.72987126          6.157258711         0.3157055427      6.223994635e-05      1.818566376e-09          49.78918442          44.37930313          37.15172191          14.78246084          15.69375298          2.521853872          3.221307753         0.7369766062 
12 1          14.09180919          12.72671233          6.208203243         0.4187341869      0.0004706809997       1.99107993e-07           49.9765927          44.66015228          36.99360422          15.20472213          15.59788097          2.647750256          3.197371518         0.7865562789 
13 1          14.00788671          12.63528714          6.112017934         0.3900100287      0.0002234667086      3.337164847e-08          48.75027929          43.54364872          36.19875467          14.70902083          15.34985328          2.526799097          3.220464018          0.774548421 
14 1          13.93890859          12.57041786          6.050214474         0.3383943217      0.0001097246048      6.566414948e-09          48.11779608          42.82139619          35.89973399          14.30222526          15.32577562          2.416360315          3.398493622         0.7596095868 
15 1          13.97580167          12.60735618          6.077904004         0.3274942938      0.0001045866348      7.749784858e-09          48.46056637          43.20889644           36.1799011          14.41564372          15.42851327          2.469086853          3.394147222         0.7868779171 
16 1          14.05194398          12.68062104          6.143987387         0.4045137347      0.0002160177755      2.197954818e-08          49.21645355          43.98617322          36.55981399           14.8645359          15.44832599          2.638255646          3.157152694         0.7975241131 
17 1          14.13997391          12.78257433          6.278187901         0.3948813399       0.000321183371      8.690521993e-08          50.84158412          45.49199258          37.56839352          15.54558578          15.74536681          2.740835474           3.31781432         0.7763307653 
18 1          14.17720115          12.82065953           6.31902074         0.4153080438      0.0003353132189      8.731082732e-08           51.2202225          45.85364615          37.77934303          15.79812095          15.88195085          2.847480462          3.431414977         0.8749036439 
19 1          14.14532033          12.79089008          6.294053424         0.4158438828      0.0004647113884      1.987513465e-07          50.93756857          45.61437728          37.58948823          15.66549352          15.77168476          2.846958453          3.326231413         0.8481612254 
20 1          14.10430279          12.74480975            6.2328451         0.3510927684      0.0001306895299      1.219293388e-08           50.2298967          44.94928093           37.2854457          15.25700181          15.69235849          2.701225751          3.305208359         0.9484989229 
21 1          14.01703438          12.64842717          6.116707176         0.3591741811      0.0001618870749      1.973265096e-08          48.97637739          43.67331508          36.45208245          14.66312797           15.4495909          2.550158018          3.284117731         0.7454239625 
22 1          13.99635064          12.62759647          6.091225495         0.3537020357      0.0001913605335      3.164670694e-08          48.71246686          43.39784959          36.30495655          14.51479541           15.4136129          2.505089441          3.239237234         0.7017172279 
23 1          14.04372835          12.66969667          6.105897305         0.2990209253      4.542789653e-05      9.308326387e-10          48.99084573           43.6237923          36.63827678          14.51509752          15.56615435          2.499313042          3.279978444           0.82516768 
24 1          14.06882524          12.70282588          6.165744358         0.3455452813      8.920788708e-05      3.307871411e-09          49.58799208          44.25904546          36.90206935          14.89187346          15.58215836          2.626020921          3.346672154         0.8480143296 
