ITEM: TIMESTEP
0
ITEM: NUMBER OF ATOMS
24
ITEM: BOX BOUNDS pp pp pp
0.0000000000000000e+00 8.5199999999999996e+00
0.0000000000000000e+00 7.3785360000000004e+00
0.0000000000000000e+00 3.0000000000000000e+01
ITEM: ATOMS id type c_1[1] c_1[2] c_1[3] c_1[4] c_1[5] c_1[6] c_1[7] c_1[8] c_1[9] c_1[10] c_1[11] c_1[12] c_1[13] c_1[14] 
1 1          14.07772046          12.71488185          6.180148898         0.3340077774      0.0001240705854      1.220268713e-08          49.82012214          44.42635998          37.12127079          14.90707784          15.73451019          2.574516251          3.330124671         0.8627959094 
2 1          14.09638844          12.73514439          6.227574753         0.3633463711      0.0001942153384      3.210709087e-08          50.11587797          44.81603437          37.17749543          15.23139189          15.60711464          2.708812543          3.280526377         0.9112691291 
3 1          14.04025708          12.66203441          6.084788367         0.3681016676      0.0002930727114       8.20055823e-08          48.77799273          43.45826518          36.43941741          14.47503409          15.61787722          2.478465434          3.346202799         0.7138692555 
4 1          13.98768662          12.60367933          6.024631324          0.339638351      0.0002238664653      4.862867928e-08          48.06773679          42.68470762           35.9565168          14.15516167          15.47932684          2.393916745          3.372413921         0.6299889522 
5 1          13.99886407           12.6289486          6.078031532          0.323413014      0.0001298625338      1.426757454e-08          48.65510619           43.3375065           36.3622532          14.39120076          15.41025746           2.51117115          3.249190855         0.6957789424 
6 1          14.05539842          12.68910156            6.1486007          0.374015988       0.000163485239      1.569409362e-08          49.44330491          44.10145453          36.78965588          14.82513649          15.61907048          2.531132255          3.309986891         0.8022946693 
7 1          14.10964402          12.75351989          6.283862108         0.4062324598      0.0002990304986      6.948013267e-08          50.65689573          45.39113937          37.29141603          15.63562975          15.52957743          2.758250556          3.186872604          0.697240241 
8 1          14.10380783          12.74090118          6.248728704         0.4554171841       0.000394540633      8.177594482e-08          50.13283421          45.04347649          36.99635413          15.50031832            15.479356          2.807621251          3.050086403         0.9627848873 
9 1          14.09099838          12.71349299          6.122463075         0.3436481233      0.0001185432526      7.900146562e-09          49.48222465          44.09256546          36.92738933          14.63952154           15.6023893          2.475709885           3.08391421         0.5574620677 
10 1           14.0571623          12.67625106          6.081789234         0.3089948153      6.355053235e-05      2.218256222e-09          48.87916833          43.48115316          36.57700625          14.39667205          15.64337789           2.42855603          3.403717066         0.7382733207 
11 1          13.98083394          12.60532071          6.071909012         0.4260493586      0.0003279124846      5.978657679e-08          48.30691881          43.07714435           35.8978608          14.54152545           15.2662612          2.496688359          3.320693634          0.726417253 
12 1          13.97206935          12.61442843          6.150342548         0.3828380903       0.000166007488      1.405042557e-08          48.94204266          43.78270935            36.208083          14.91690663           15.3066676          2.631831776           3.29826576         0.7029327124 
13 1          13.99755105          12.63638406          6.148091004         0.3739141739      0.0001407190115      9.002878435e-09          49.02104744          43.84058296          36.35040861          14.87765752          15.40511122          2.594010795          3.269531065         0.8440152945 
14 1          13.99691292          12.63401439          6.124618733         0.3288619097      9.159409047e-05      5.567500469e-09          48.95081484          43.74945098           36.4339319           14.6712509          15.32428525          2.623245066          3.073480711         0.7319272911 
15 1           14.0673019          12.69362402          6.147551313         0.3637675095      0.0001512287221      1.331930965e-08          49.38852321          44.09090007          36.71358972          14.82826778          15.58752104           2.58830533          3.160228591         0.6967973009 
16 1           14.1207798          12.73786111          6.122967444         0.3207413645       0.000113827657      1.125405249e-08          49.50122417          44.06705162            37.017809          14.60864501          15.71781574          2.526765718          3.219870053         0.7124680362 
17 1          14.13871262          12.78459235          6.313332681         0.4805982821      0.0004345231002      7.331938684e-08          50.87436387          45.69602836          37.39763941          15.87933869          15.59652003          2.897490199          3.170216736         0.9778128554 
18 1           14.0976724          12.73544297          6.231879647          0.383586098      0.0001819222255      1.705234719e-08          50.18650721          44.91627257           37.1202714          15.30938637          15.60824262          2.683873105          3.072018851          0.758111887 
19 1          14.01385256          12.66131426          6.189568973         0.3443355245      9.703700776e-05      4.514184379e-09          49.56269417          44.32557541          36.73582624          15.04119772          15.42568324          2.696612408          3.250904992         0.7622651933 
20 1          14.02659147          12.65778666          6.113335797         0.3755177569      0.0003127067961      8.334808397e-08          49.09136934          43.74588424          36.55279767          14.64264671          15.47894429          2.515927036          3.277616753         0.6093708421 
21 1          14.07638697          12.69806264          6.124208879         0.3332246134      0.0001466215532      1.846128606e-08          49.22497765          43.88696477          36.71159477          14.65902204          15.60246512          2.487354568          3.214978991         0.7420479658 
22 1          14.06657544          12.69430209          6.149213189         0.4203683678      0.0002413652735      2.539262356e-08          49.44227585          44.14397188          36.65902376          14.91862325          15.45825615          2.524070101          3.228166211         0.5939018881 
23 1          14.12899453          12.75772404          6.185684217         0.3323217564       8.68277476e-05      4.326758672e-09          50.10709725          44.66774021          37.30894852          14.96305566          15.77404433           2.55573536          3.371110529         0.7162000763 
24 1          14.13539021           12.7843609          6.302155193         0.3783262709      0.0002023674737      3.149740596e-08           51.0610757           45.7132431          37.69111015          15.65381891          15.80502444          2.730312021          3.355336589         0.7431951708 
