ITEM: TIMESTEP
0
ITEM: NUMBER OF ENTRIES
582
ITEM: BOX BOUNDS pp pp pp
0 4.26
0 2.4768
0 30
ITEM: ENTRIES c_2[1] c_2[2] c_2[3] c_2[4] c_2[5] c_2[6] c_2[7] c_2[8] c_2[9] c_2[10] c_2[11] c_2[12] c_2[13] c_2[14] c_2[15] c_2[16] c_2[17] 
                   0                   94           0.71325988       -0.02479191837       -0.00279692512     -0.0001064240433     -3.317197053e-19     -6.919451554e-85    -2.061364868e-167      -0.007160022449      -0.005275516786      -0.006773072824     -0.0004235473676      -0.004747913783      2.134879194e-10      -0.003273707781      5.124858617e-55 
                   1                    2          -5.00837233         0.2319116105        0.02616334079      0.0009955248684      3.103013246e-18      6.472678435e-84     1.928267265e-166        0.06715138233        0.04908854815        0.06365372363       0.003826551881         0.0450060185      9.706115758e-09        0.02380756307      2.511809944e-55 
                   1                    1          14.97237513       0.003445063593      0.0003886583023      1.478859326e-05      4.609548414e-20      9.615210198e-86     2.864454841e-168      0.0009881804645      0.0007246003117      0.0009358855426       5.72209484e-05      0.0006629779151      1.588612461e-10      0.0004597921853      8.259568202e-57 
                   0                   77          -3.54674032         0.5323765564        0.08532033137        0.01274340782      2.897693816e-12      1.723252151e-57     1.517033635e-114         0.4531464476         0.3628578623         0.4070239881        0.05074204552         0.2286719066      2.201314617e-05        0.06753985341     -6.810554091e-24 
                   1                    2          -2.53157233         0.5411153733        0.08672084148        0.01295258741      2.945258674e-12      1.751538868e-57     1.541935331e-114         0.4613821392         0.3725362274         0.4150651533          0.050969504         0.2386319489      1.666619215e-05        0.02760034693      4.671800147e-23 
                   1                    1          14.97237513        0.01347382322       0.002159357035      0.0003225206336      7.333721547e-14      4.361348105e-59     3.839433345e-116        0.01116817555       0.008810738996        0.01009236512       0.001186443468       0.006329530861      4.872318284e-07       0.001809411245      1.275712276e-24 
                   0                   78          -2.06895038         0.4560089377        0.09942484513        0.03680565039        1.9486969e-08      5.287027025e-39      9.482455101e-78         0.8060127771          0.755115165         0.6754581946         0.1519804605         0.2980698978        0.01877514915         0.0293222533         0.0196284368 
                   1                    3          -2.53746858         0.7869550107         0.1715819002        0.06351715636      3.362953361e-08      9.124058905e-39       1.63642967e-77          1.394672857          1.117958904          1.165268252         0.2633019316         0.5246502369        0.03174141903         0.2585825456         0.0232081464 
                   1                    1          15.02685609       0.007877345524       0.001717518658      0.0006358007517      3.366284635e-10      9.133097014e-41      1.638050685e-79       0.004280931319        0.03001457747       0.003831242616       0.002848243157      -0.001600276018      0.0007183629535       -0.02790664846       0.007256135928 
                   0                   79          -1.45521415         0.2333474391        0.03832076075       0.006207800098      2.792960306e-12      3.180749832e-56     1.116925184e-111         0.2115362825         0.1732723878         0.1902765369        0.02341613784         0.1088701153      1.227908249e-05       -0.01201493308      1.644030938e-06 
                   1                    4          -3.70446603         0.7462299477         0.1225473029        0.01985214134      8.931705579e-12      1.017183129e-55     3.571854162e-111         0.6769206604         0.5486777657         0.6061185809         0.0779550952         0.3331067383      4.634945345e-05        0.05630715013      4.657013539e-06 
                   1                    1          15.00731529       0.008682506668       0.001425857777      0.0002309828895      1.039218454e-13      1.183509094e-57     4.155910342e-113        0.00640083222       0.005241098671       0.005541991944      0.0009481159718       0.002972093841      4.082290625e-07      0.0006100853883     -2.474358407e-08 
                   0                   68           0.05692017                   -0                   -0                   -0                   -0                   -0                   -0     -0.0008091325173      -0.008521439046        0.00102512202      -0.001945947166        0.01143179841      0.0001225385757        0.04718504295     -4.568448171e-06 
                   1                    1          -3.82235873         0.8137120297         0.1388539779        0.02547174737      3.272168883e-11      3.518983774e-53     3.615938187e-106          0.813545836         0.5556589478         0.7264997466         0.0965291662          0.420308668       0.002127861721         0.1913032891      1.234602605e-05 
                   1                    1          15.06357953                   -0                   -0                   -0                   -0                   -0                   -0       -0.00411019536      -0.001618375846      -0.004461196393      0.0003806549217      -0.006599290857     -1.171159275e-05      -0.007491292126      6.348276175e-07 
                   0                   69           0.71325988         -0.154497593       -0.04055724967        -0.0230897458       -5.2789787e-07     -2.115017256e-30     -3.438966083e-60        -0.3990327412         -0.321403924        -0.3072794749        -0.1058555222       -0.08084575644       -0.02213627716        -0.3726117859      -0.002563185852 
                   1                    2          -2.53157233         0.8621996754         0.2263365196         0.1288561908      2.946022415e-06      1.180320778e-29      1.919172579e-59          2.245684214          1.947829448          1.755677661         0.5614920432         0.8679095413        0.05826058907         0.1271671823       0.005271920061 
                   1                    1          14.97237513        0.02146885227       0.005635800433        0.00320853116      7.335623269e-08      2.939009737e-31      4.778757607e-61        0.05283270332        0.03925386209         0.0426873215        0.01201018738        0.02266072024       0.003456531951        0.05777268351      0.0003561782882 
                   0                   70           2.19104982        -0.4573035766       -0.09956237755       -0.03672028738     -1.882617342e-08     -4.436815091e-39     -6.673826839e-78         -0.812809362        -0.6206011531        -0.6812713186        -0.1483844475        -0.3848210155      -0.005588902253        -0.1809610802      4.470500177e-12 
                   1                    3          -2.53746858         0.7861350579         0.1711543041        0.06312459977      3.236343578e-08       7.62717824e-39      1.147274921e-77          1.398980855           1.16202612          1.173530067         0.2542263532         0.6574047535       0.009394885584         0.2260420209       4.93561874e-12 
                   1                    1          15.02685609       0.007869137874       0.001713238461      0.0006318712972      3.239549434e-10      7.634733569e-41      1.148411389e-79       0.006189504551        0.07909920957       0.003283637958       0.003268999562       -0.01465291051      0.0003511756692        -0.1356994056      5.699709446e-13 
                   0                   71           2.80478605        -0.2907889077       -0.04040441032      -0.003627556031     -1.207767082e-14     -9.489497042e-68    -1.228306702e-134        -0.1649469343        -0.1365401402        -0.1539475384       -0.01207390631        -0.1019192526     -5.658558717e-06       -0.04095015469     -4.708112699e-16 
                   1                    4          -3.70446603         0.5117316874        0.07110387132       0.006383790164      2.125434192e-14      1.669966153e-67     2.161579911e-134         0.2903932627         0.2063685115         0.2710825905        0.02119800813         0.1791722906      1.371779839e-05        0.07169859302      9.565606445e-16 
                   1                    1          15.00731529       0.005954081314      0.0008273050937      7.427643561e-05       2.47297721e-16      1.943032748e-69     2.515033341e-136       0.002881755335       0.003822740469       0.002593557735      0.0003153843397      0.0008027835396      2.314364814e-09      -0.006495729642      5.569564875e-18 
                   0                   73           4.97326008        -0.2105035194       -0.02410747906     -0.0009809748497     -5.277095947e-18     -9.778243403e-83    -4.334895096e-164       -0.06442704082       -0.04726022941       -0.06104071798      -0.003704491466       -0.04290708407     -1.221712451e-08       -0.02106487742     -6.408389685e-54 
                   1                    2          -2.53157233          0.156831132         0.0179607602      0.0007308542709      3.931587147e-18      7.285070515e-83     3.229620613e-164        0.04797960651        0.03538701626         0.0454313301       0.002788153776        0.03190050809      6.558935812e-09        0.01704760289      -4.44049294e-54 
                   1                    1          14.97237513       0.003905109804      0.0004472246028      1.819833946e-05      9.789688638e-20      1.813989348e-84     8.041785424e-166       0.001182014931      0.0008593698454       0.001117036384       7.10889383e-05      0.0007743334484      2.251684083e-10      0.0004791503259      1.094258637e-55 
                   0                   49          -6.32895058       0.002792483091       0.000281938852      6.332881592e-06      2.069918999e-22      1.106920793e-95     2.816891344e-187      0.0005326233327      0.0003985036604       0.000509423995       2.53377168e-05      0.0003685004367      2.185991588e-11      0.0001192977306      1.518120996e-54 
                   1                    3          -0.06066858      0.0005212113168      5.262331605e-05      1.182019531e-06      3.863461915e-23      2.066045254e-96     5.257670678e-188      9.941191825e-05      7.439045379e-05      9.508180582e-05      4.729245901e-06      6.877358973e-05      4.106667862e-12       2.22331875e-05      2.284220898e-55 
                   1                    1          15.02685609      1.605882569e-05      1.621355163e-06      3.641871348e-08      1.190355226e-24      6.365606337e-98     1.619919104e-189      3.056315056e-06      2.290567023e-06      2.922521602e-06      1.461248628e-07      2.109222702e-06      1.253417291e-13      6.653051594e-07      9.638579788e-57 
                   0                   50          -5.71521435         0.1776391436        0.01962804961      0.0006795221365      9.778001524e-19      9.609741822e-86     6.631056552e-170        0.04782674875        0.03515254515        0.04543084598        0.00262004746         0.0321494514      6.343315359e-09        0.01611312562       1.39215333e-55 
                   1                    4          -1.22766603        0.07259606844       0.008021425929      0.0002777013811      3.995991274e-19      3.927228317e-86     2.709924319e-170        0.01955456599        0.01432150255        0.01857982772       0.001065715926        0.01312234093      3.350957055e-09       0.006013709864      3.508457191e-54 
                   1                    1          15.00731529       0.001731548594      0.0001913256335      6.623684261e-06      9.531167761e-21      9.367155571e-88     6.463663589e-172      0.0004395149683      0.0003786329504      0.0004141314944      2.775613742e-05      0.0002718327101       6.24676052e-11      1.011027384e-05      1.354115462e-57 
                   0                   42          -4.20308003         0.7091767466         0.1220831632        0.02302895094       3.74652031e-11      1.123147344e-52     4.151769392e-105         0.7264617055         0.5888728538         0.6450578222        0.09022666637         0.3639038935       0.002023190321         0.1330595794      1.411830915e-06 
                   1                    1          -1.34555873         0.4123213341        0.07098017947        0.01338922606      2.178258467e-11      6.530073264e-53     2.413873696e-105         0.4217467067         0.2822535197         0.3760134761        0.05081438515         0.2194550101       0.001285138764         0.1360106856     -6.902789899e-08 
                   1                    1          15.06357953                   -0                   -0                   -0                   -0                   -0                   -0      -0.004339471452        0.04303769069      -0.004647638626      0.0003349091216      -0.007192987356     -7.013441164e-06       -0.01977648692      8.926766093e-08 
                   0                   43          -3.54674032         0.8408361506         0.2149319958         0.1156342413      1.607117755e-06      7.241904067e-31      7.678175491e-62          2.076508336          1.788751188          1.632778309         0.5052148981         0.7638526856         0.0407620756         0.2527541844       0.002592011209 
                   1                    2          -0.05477233         0.2767305946        0.07073703829        0.03805679896      5.289242756e-07      2.383408964e-31      2.526991813e-62          0.685918438         0.6179322867         0.5419042164         0.1638376407         0.3056021296       0.004540062885        -0.2805056658      0.0001780208829 
                   1                    1          14.97237513        0.02128057203       0.005439675511       0.002926566369      4.067425635e-08      1.832840572e-32      1.943255728e-63        0.05001525704        0.03918549014        0.04101750405        0.01052278868        0.02598837936       0.002139842916        0.02857212997      0.0001689062396 
                   0                   44          -2.06895038         0.4746322046         0.2111888394         0.2697629971       0.008238252136      1.868652478e-12      4.658973397e-25          2.863309731          2.870718725          1.702455447          1.440749838         0.2797196385         0.4350024805        -0.2153979398         0.1531756942 
                   1                    3          -0.06066858         0.2661115935         0.1184070488         0.1512477669       0.004618933108      1.047695635e-12       2.61214225e-25          1.679412529          1.609752541          0.961053955         0.7987875855         0.4941410498        0.08191202558         0.4371889997        0.02584403457 
                   1                    1          15.02685609       0.008199053929       0.003648190467       0.004660032211      0.0001423120321      3.228011563e-14       8.04816314e-27       -0.04225372579        -0.0658737094       -0.01107867364        0.02827186118       -0.02432206911        0.03576439679      0.0005059318807        0.05338882761 
                   0                   45          -1.45521415         0.3569109139          0.134712359         0.1418014161      0.0007622871017      8.201274362e-17      1.434961332e-33          1.671593552          1.540765833           1.12730496         0.7070740225         0.2493493117         0.2432742327         0.1421232652          0.308944372 
                   1                    4          -1.22766603         0.5567757765         0.2101492989         0.2212081236       0.001189156668      1.279386739e-16      2.238518573e-33          2.690561193          2.640700865          1.752096188          1.111503431         0.4624040482         0.3274394774       -0.02757634322        0.02267717162 
                   1                    1          15.00731529        0.01328011742       0.005012443934       0.005276217067      2.836355466e-05      3.051570637e-18      5.339274936e-35       0.004136722381        0.00456182038        0.02230095784        0.02469806207        0.02384283172        0.03616892077         0.0472828389         0.2122732088 
                   0                   34           0.05692017                   -0                   -0                   -0                   -0                   -0                   -0        0.02126834948        -0.1366882379        0.01913056461       -0.02132686583         0.3915144952        -0.1501351743          0.602759804        -0.0118908819 
                   1                    1          -1.34555873         0.5572350607         0.2433932895         0.3048959963       0.007813167168      8.180428237e-13      7.761829956e-26          3.229415783          3.261295086          1.989971824          1.600376724         0.5531961531         0.4408854845        0.03665443732         0.1518083357 
                   1                    1          15.06357953                   -0                   -0                   -0                   -0                   -0                   -0       -0.06076487729       -0.01560265226       -0.07154488212        0.01664198612        -0.1273937043        0.02436460126       -0.09136226324       0.001717603171 
                   0                   35           0.71325988       -0.09682462258       -0.08151269711        -0.1570534002        -0.1969876247     -0.0005844308345     -1.140793866e-07         -1.293839172         -1.504433972        -0.3527072183         -1.109895658         0.0620510339        -0.3394238739         0.1002831377        0.02694164477 
                   1                    2          -0.05477233         0.1749632354         0.1472944054         0.2837973473          0.355958962       0.001056073414      2.061427976e-07          2.286555263          2.586013286         0.6837444513          1.966605092       -0.08220163971         0.5770471291       -0.06089644925         0.1978426313 
                   1                    1          14.97237513        0.01345466604        0.01132693408        0.02182400504        0.02737323042      8.121200469e-05      1.585237317e-08       -0.01071066116        -0.1206410031        0.07494567714         0.1132728972         0.3965336842         0.2497288225         0.5195213982         0.5024847291 
                   0                   36           2.19104982        -0.4771607301        -0.2115909615        -0.2693188876      -0.007966146815     -1.569653997e-12       -3.2821826e-25         -2.877330505         -2.755704808          -1.73625755          -1.40394824        -0.6389269718        -0.3303118675        -0.3287922479        -0.1461889721 
                   1                    3          -0.06066858         0.2664939191         0.1181733974         0.1504144019       0.004449087175      8.766506104e-13      1.833096583e-25          1.644937916          1.787966691         0.9602679998         0.8001734996       -0.06418085966         0.3505642757        -0.5232496713        0.04540807398 
                   1                    1          15.02685609       0.008210833602       0.003640991529       0.004634355748      0.0001370789795      2.701011833e-14      5.647877849e-27       -0.03804556934       -0.05539294633       -0.01512403846         0.0320204551       -0.05101308088        0.03197932294        0.02488220401        0.05592797027 
                   0                   37           2.80478605        -0.6533516059        -0.1780015329        -0.1093576018     -4.893367993e-06     -3.742083546e-28     -2.423934502e-56         -1.826542264         -1.611066397         -1.410811606        -0.4770928575        -0.7178195959       -0.04683862376         0.1275561987      -0.004597958107 
                   1                    4          -1.22766603         0.5608701225         0.1528055348        0.09387810626      4.200715022e-06      3.212394119e-28      2.080828192e-56           1.56681766          1.350023094          1.206450527         0.4148496491         0.5149843201        0.05752849357         0.3967958732       0.008023579383 
                   1                    1          15.00731529        0.01337777503       0.003644690608       0.002239163998      1.001947123e-07      7.662145677e-30      4.963154626e-58        0.02610585941        0.02777063672        0.01729190633        0.01041845583       -0.01000052261       0.002601373343      -0.002266633671      0.0006977905497 
                   0                   38           4.31692037        -0.7091767466        -0.1220831632       -0.02302895094      -3.74652031e-11     -1.123147344e-52    -4.151769392e-105        -0.7257285591        -0.5794996444        -0.6488596139       -0.08520003674        -0.3786947592      -0.001557971142        -0.1868469191     -1.214697275e-05 
                   1                    1          -1.34555873         0.4123213341        0.07098017947        0.01338922606      2.178258467e-11      6.530073264e-53     2.413873696e-105         0.4233464946         0.2931529518         0.3762666833        0.05207029689         0.2080460442      0.0007583826321        0.06902017953      1.206193137e-05 
                   1                    1          15.06357953                   -0                   -0                   -0                   -0                   -0                   -0      -0.004393760385        0.03875681081      -0.004832673886      0.0004787668712      -0.007747198027     -6.132212413e-06       -0.01932302159       3.69508448e-07 
                   0                   39           4.97326008        -0.7625258978        -0.1255937734       -0.02054429993     -1.003093075e-11     -1.627899681e-55    -8.895822338e-111        -0.6998361991        -0.5673794639          -0.62683867       -0.08037431693        -0.3488439995     -3.667517578e-05       -0.04806726488     -6.620422855e-24 
                   1                    2          -0.05477233           0.18395109        0.03029813358       0.004956089198      2.419853083e-12       3.92713115e-56     2.146020509e-111         0.1687615361         0.1367426303         0.1501422424         0.0204912936        0.07851848275      1.079201594e-05        0.02395422141     -8.025897786e-24 
                   1                    1          14.97237513        0.01414583171       0.002329925301      0.0003811230677      1.860866085e-13      3.019962337e-57     1.650288942e-112        0.01254475293       0.009822228731         0.0112281667       0.001453895899       0.007170230439      8.218137005e-07       0.002869693968      1.228173205e-25 
                   0                   16          -5.71521435          0.479721627        0.06205764572       0.004219605958      1.450881221e-15      7.594209249e-73     6.115707748e-145         0.2190121162         0.1619948554         0.2060038635        0.01424968009         0.1387460058      1.152327216e-06        0.05635343691      2.746476365e-33 
                   1                    4           1.24913397      -0.009798052638      -0.001267493574     -8.618315073e-05     -2.963345776e-17     -1.551075828e-74    -1.249099958e-146       -0.00445002119     -0.0007703361874      -0.004175915549     -0.0002992066896      -0.002396540287     -5.608663387e-08       0.001516282738      2.197504213e-33 
                   1                    1          15.00731529       0.004676116376      0.0006049107589      4.113087135e-05      1.414255488e-17      7.402502667e-75      5.96132414e-147       0.001860668676      0.0001895352464       0.001709921571      0.0001650072385      0.0008590520769      1.137039024e-08     -0.0007048540681      2.677144908e-35 
                   0                    8          -4.20308003         0.9092325462         0.1968793749        0.07160755061      3.252824998e-08      4.514180833e-39      3.503902196e-78          1.598645984          1.313319395          1.336095293          0.295494803         0.7403709726       0.007309371829         0.2593236465      9.259734804e-15 
                   1                    1           1.13124127                   -0                   -0                   -0                   -0                   -0                   -0     -0.0001299592039       -0.05550487773      0.0006206604909     -0.0007434840584        0.01448439443      0.0004007096052         0.1562478688      4.306309786e-14 
                   1                    1          15.06357953                   -0                   -0                   -0                   -0                   -0                   -0       -0.01164761223        0.02055693024        -0.0126411276       0.001115051384       -0.02418236163      0.0002443044867       -0.08582615434      4.185810653e-15 
                   0                    9          -3.54674032         0.8369927987         0.2113137717         0.1106674717      1.213986885e-06      1.936442846e-31      5.608946399e-63          2.015949544          1.725573852          1.595512048         0.4800531622         0.7932353096        0.04649518279         0.2416454982       0.004282809159 
                   1                    2           2.42202767        -0.2998004181       -0.07568996674       -0.03963971295     -4.348350142e-07     -6.936097607e-32      -2.00905489e-63        -0.7249839519        -0.6305043404        -0.5746951554        -0.1708517496        -0.3327914317      -0.005245725388        0.08543391095     -0.0006994978274 
                   1                    1          14.97237513        0.02118330132       0.005348102523       0.002800863284      3.072457734e-08      4.900908629e-33      1.419558231e-64        0.04853879751        0.03889016879        0.04007686591       0.009980563178        0.02530081327       0.002558114132        0.01841715494      0.0002849590344 
                   0                   10          -2.06895038         0.4789566661         0.2084720291         0.2601748462        0.00644646092      5.818881896e-13      4.586800824e-26          2.844431452           2.89989724          1.688968282          1.381358523         0.2734972957         0.4572253237        -0.2521690471         0.1045394082 
                   1                    3           2.41613142        -0.2894845609        -0.1260018663        -0.1572513891      -0.003896283402      -3.51697051e-13     -2.772292602e-26         -1.682595158         -1.504693426         -1.028234827        -0.8258743783         -0.626448274        -0.0966774818        -0.4718767899        -0.1205703199 
                   1                    1          15.02685609       0.008273757022       0.003601258813       0.004494401295      0.0001113596596      1.005185194e-14      7.923488327e-28       -0.03744147424       -0.05591519473      -0.009842663891        0.02677167295       -0.02917072427        0.04082384345      0.0004678355137        0.05312429799 
                   0                   11          -1.45521415         0.2446605788          0.183280034         0.3373410266         0.2793651552      0.0001326937609      2.624295312e-09          2.832490023          3.132813847         0.9839978574          2.240415689        0.01533781082         0.6679782246       -0.05822930532         0.1252641048 
                   1                    4           1.24913397       -0.01907482414       -0.01428932455       -0.02630060301       -0.02178054687     -1.034539428e-05     -2.046017049e-10        -0.1590878255         -0.179499808       -0.07778724037        -0.1737832123        0.07501293397         0.0783743251         0.0269478887        -0.5293050364 
                   1                    1          15.00731529       0.009103451555       0.006819573951        0.01255195139        0.01039475656       4.93733494e-06      9.764607502e-11     -0.0009273532783       -0.01424282718      -0.002937707964        0.08158823953          0.130660998         0.1438249847         0.2585707333         0.2767060867 
                   0                    1           0.71325988        -0.1023346365       -0.08039733251        -0.1509407004        -0.1496320694     -0.0001571860648     -8.382516501e-09         -1.297727739         -1.458529063        -0.3901369819         -1.034739311        -0.0205145773        -0.4120733605        0.09460371459         0.3590212311 
                   1                    2           2.42202767         -0.201255775        -0.1581129129        -0.2968465878        -0.2942729766     -0.0003091289946     -1.648542383e-08         -2.430919772         -2.713939019        -0.8157097453         -1.993574799        0.06240027253        -0.5273312866        0.04391805555        -0.3543514314 
                   1                    1          14.97237513        0.01422033282        0.01117194398        0.02097458954         0.0207927433      2.184243999e-05      1.164827263e-09        0.06114412998        -0.0305460373         0.0761263401         0.1074441143         0.3482513592         0.2100099557          0.422226806          0.434809377 
                   0                    2           2.19104982         -0.481452167        -0.2088675439        -0.2597441576      -0.006233463417     -4.887756397e-13      -3.23129778e-26         -2.867857054         -2.793722951         -1.713559685         -1.354133253        -0.6149172075        -0.2673610535        -0.2367112411       -0.09999159112 
                   1                    3           2.41613142        -0.2898667132        -0.1257523646        -0.1563835213      -0.003752965873     -2.942759382e-13     -1.945459447e-26         -1.661531006         -1.680529696         -1.032299993        -0.8218109536       -0.00903857165        -0.3015591918         0.3451017331        -0.1189054008 