ITEM: TIMESTEP
0
ITEM: NUMBER OF ENTRIES
600
ITEM: BOX BOUNDS pp pp pp
0 4.26
0 2.4768
0 30
ITEM: ENTRIES c_2[1] c_2[2] c_2[3] c_2[4] c_2[5] c_2[6] c_2[7] c_2[8] c_2[9] c_2[10] c_2[11] c_2[12] c_2[13] c_2[14] c_2[15] c_2[16] c_2[17] 
                   0                   98           2.15208669        0.01313940906       0.001350376872      3.313497384e-05      2.508906884e-21      3.510389681e-93     3.582083033e-183       0.002675678741       0.001994411195       0.002553929093      0.0001330914168       0.001849345439        4.2741893e-10      0.0005740047877      1.313541919e-50 
                   1                    3          -4.96915338        0.03906222971       0.004014543676      9.850716674e-05      7.458744646e-21      1.043605899e-92     1.064919659e-182       0.007959315465       0.005933010071       0.007596639789       0.000396459327       0.005500044108      1.207642487e-09       0.001811837911      1.398346944e-50 
                   1                    1           14.9372809     -0.0001107520146     -1.138232004e-05     -2.792945322e-07     -2.114756383e-23     -2.958905742e-95    -3.019336033e-185     -2.192473696e-05     -1.811528753e-05     -2.083134506e-05     -1.194435843e-06     -1.409204478e-05     -4.439429784e-12      8.146666455e-07     -5.516338936e-52 
                   0                  101           6.41208689      -0.001358360137     -0.0001372179859     -3.090447055e-06     -1.037295728e-22     -6.211805605e-96    -1.805491257e-187      -0.000257303412     -0.0001923285729     -0.0002458828219     -1.247475723e-05     -0.0001769828496     -1.234426501e-11     -5.924401192e-05     -2.788310259e-54 
                   1                    3          -4.96915338       0.003763045745      0.0003801330325      8.561421469e-06      2.873605583e-22      1.720847661e-95     5.001726719e-187      0.0007128127728      0.0005329098652      0.0006811774258       3.45554769e-05      0.0004902869408      3.441593169e-11      0.0001638294303      6.684003703e-54 
                   1                    1           14.9372809      -1.06692552e-05     -1.077780237e-06     -2.427395166e-08      -8.14745113e-25     -4.879069802e-98    -1.418125168e-189     -2.016557542e-06     -1.503714114e-06     -1.927358627e-06     -9.743526266e-08     -1.390789477e-06     -9.618833968e-14     -4.810154461e-07     -2.991740767e-56 
                   0                   68           4.20694018                   -0                   -0                   -0                   -0                   -0                   -0      -0.001611820689      -0.005803552912      2.677595415e-05      -0.001739090305       0.004410851433       8.17285213e-05        0.03433022559     -8.187984935e-08 
                   1                    1          -3.81386685         0.8137120297         0.1388539779        0.02547174737      3.272168883e-11      3.518983774e-53     3.615938187e-106         0.8136532999         0.5602243316         0.7233139196        0.09979134218         0.4034671315      0.0006134459613         0.1768663048      9.679472092e-07 
                   1                    1          14.91996055                   -0                   -0                   -0                   -0                   -0                   -0       0.001844471224       0.001422946538       0.001789874382      5.743510419e-05       0.001549873956     -2.897751767e-06     -0.0004495370437      1.766802659e-09 
                   0                   70           2.15208669         0.4479692798         0.1000046565        0.03928747631      3.487787229e-08      9.092555824e-38      2.754704619e-75         0.8402189394         0.6892616784         0.6920710756         0.1634907394         0.3038614558        0.01547979714          0.124913036        0.01366533517 
                   1                    3          -2.49235338         0.7918146937         0.1767647026          0.069443157      6.164889651e-08      1.607168087e-37      4.869118694e-75          1.472710301           1.23101936          1.231545878         0.2846865914          0.548177671        0.02766361024         0.2216190353        0.02645969473 
                   1                    1           14.9372809      -0.003775930864       -0.00084293876     -0.0003311539454     -2.939854147e-10     -7.664110849e-40     -2.321939174e-77      -0.007318316741         -0.176737991       -0.00129488748      -0.002083796596       0.006940553419     -0.0001075741155          0.073437495      0.0004573986997 
                   0                   71           2.82732809         0.2074306577        0.03356527429       0.005177653599      1.543461337e-12      2.960119735e-57     1.124202962e-113         0.1808399515          0.147913544         0.1619226583        0.02083130561        0.09215838821      4.078529825e-06       -0.00493693215      3.337565075e-22 
                   1                    4          -3.78044082         0.7397694829         0.1197053796        0.01846530387      5.504517066e-12      1.055681099e-56     4.009296665e-113         0.6475733818         0.5228808356          0.579442822        0.07499565586         0.3242396751      3.169732973e-05         0.0640849287      1.655557291e-22 
                   1                    1          15.00431727        -0.0126833985      -0.002052356938     -0.0003165889007     -9.437532244e-14     -1.809972481e-58    -6.873966617e-115       -0.01219078243      -0.009471370341       -0.01120322807      -0.001089151593      -0.007561543162     -5.717566496e-07       -0.00187967762     -7.574586099e-24 
                   0                   73           5.03125371       -0.04079778435      -0.004766305341     -0.0002117197043      -2.31754587e-18     -7.593140118e-82    -1.181890747e-161       -0.01323277642      -0.009935573143       -0.01245815845     -0.0008483715992      -0.008538611254     -7.766040942e-08      -0.005292428672      6.517669838e-30 
                   1                    2          -4.87727773         0.2978001736        0.03479126576       0.001545431098      1.691674127e-17       5.54255208e-81     8.627117259e-161        0.09674811335        0.07223094028        0.09125293857       0.006014305183        0.06230187434      3.210689522e-07        0.02949556621      1.435506024e-28 
                   1                    1          14.90217352       0.000880334227      0.0001028472942      4.568485891e-06      5.000798412e-20      1.638447098e-83     2.550282799e-163      0.0003815784287      0.0002840268689      0.0003657971789      1.725743801e-05      0.0002679278048      3.764116642e-09      0.0001205334136       -1.1801055e-30 
                   0                   74           6.41208689        -0.4719628921        -0.1025857338       -0.03767737373     -1.862750831e-08     -3.744513881e-39      -4.61753973e-78        -0.8338619843        -0.7184554609        -0.6961849542         -0.154745777        -0.3603900023      -0.003638018831        0.04873415181     -2.196678284e-08 
                   1                    3          -2.49235338         0.7773678075         0.1689684682        0.06205822088      3.068127926e-08      6.167570786e-39      7.605527459e-78          1.376204791          1.117206382          1.155228615         0.2489454043         0.6522683202       0.007992721707         0.3005364626      5.767864676e-08 
                   1                    1           14.9372809      -0.003707037923     -0.0008057608167      -0.000295937362     -1.463099766e-10     -2.941132701e-41      -3.62685185e-80      -0.003399861859      -0.001584608498      -0.003113563096      -0.000373193364       -0.00588523807     -0.0001885393257       -0.02996002543     -1.726682686e-10 
                   0                   75           7.08732829        -0.2618895916       -0.03471078691        -0.0025984363      -1.95511686e-15     -2.782311297e-71    -1.373069905e-141         -0.128390767        -0.1024858127        -0.1201969498      -0.008980946699       -0.07890445719     -1.023673703e-06       -0.02174562463      1.894500983e-33 
                   1                    4          -3.78044082         0.4473502537        0.05929170088       0.004438554166       3.33965935e-15      4.752642734e-71      2.34542796e-141         0.2198553179         0.1615657263         0.2061056677        0.01507070124          0.137115232      1.765733316e-06        0.05114101634      8.401933435e-33 
                   1                    1          15.00431727      -0.007669850766      -0.001016560276     -7.609931545e-05     -5.725868849e-17     -8.148438547e-73    -4.021252315e-143      -0.004060095213       0.001260055419      -0.003887779785     -0.0001892829366      -0.003159791756     -2.862205693e-08      -0.003540075332     -1.649863024e-34 
                   0                   42          -0.05306002         0.7091767466         0.1220831632        0.02302895094       3.74652031e-11      1.123147344e-52     4.151769392e-105         0.7292806564         0.6001099259         0.6502644864        0.08739776213         0.3718286848      0.0006913420158         0.1348303598      1.589595061e-06 
                   1                    1          -1.33706685         0.4123213341        0.07098017947        0.01338922606      2.178258467e-11      6.530073264e-53     2.413873696e-105         0.4223983943          0.255506227         0.3785065197        0.04864228056         0.2278298427      0.0005451493223         0.1349152689      6.709738187e-07 
                   1                    1          14.91996055                   -0                   -0                   -0                   -0                   -0                   -0       0.002162511298       -0.03632513759        0.00257950242     -0.0004558539916       0.004335492648     -8.516158469e-07       0.005920277418      4.821844901e-09 
                   0                   44          -2.10791351        0.05922298645       0.006140832262      0.0001573920319      1.767157699e-20      1.064486683e-91     5.905988964e-181        0.01242803734       0.009248007066        0.01186689818      0.0006131853358       0.008601302462      1.186123675e-09       0.003189411925      3.400898246e-45 
                   1                    3          -0.01555338        0.01083469576       0.001123449749      2.879447463e-05      3.232970368e-21      1.947451496e-92     1.080485761e-181        0.00227215695       0.001697617925       0.002169547258      0.0001121265644       0.001567920819      1.764428343e-10      0.0005746085232      7.903053666e-46 
                   1                    1           14.9372809     -0.0001624365193     -1.684304487e-05     -4.316940998e-07     -4.846951545e-23     -2.919668899e-94    -1.619891782e-183     -3.306273381e-05     -2.457967814e-05     -3.149324196e-05     -1.714560157e-06     -2.203270786e-05      -2.97334766e-12     -7.164248995e-06     -9.327986349e-48 
                   0                   45          -1.43267211          0.231565568        0.02638116364       0.001048790016      4.669894156e-18      4.050324518e-83     7.020536281e-165        0.06941997181         0.0512493787        0.06576773201       0.003996240484        0.04635032763      9.608962112e-09        0.02300938779     -3.278332286e-56 
                   1                    4          -1.30364082         0.1003262728        0.01142969503      0.0004543904959      2.023241535e-18      1.754811677e-83     3.041662214e-165        0.03005369884        0.02229270314        0.02848012375       0.001721573661        0.02012053741      5.719010073e-09       0.009408041462      3.941028182e-55 
                   1                    1          15.00431727      -0.003463733104     -0.0003946066361     -1.568768936e-05     -6.985177943e-20     -6.058432277e-85     -1.05012434e-166      -0.001077341849     -0.0007028633843      -0.001025183372     -5.710259268e-05     -0.0007705925343     -1.410421651e-10     -0.0007762796615      4.903694518e-58 
                   0                   34           4.20694018                   -0                   -0                   -0                   -0                   -0                   -0       0.004745834808       -0.08374899539       0.001281973428      -0.009381014543         0.2452524049         -0.111408247         0.4611763693      -0.001921134157 
                   1                    1          -1.33706685         0.5572350607         0.2433932895         0.3048959963       0.007813167168      8.180428237e-13      7.761829956e-26           3.24026926          3.274515469          2.002618036           1.58919544         0.4705302702         0.4015605561        0.02469304069         0.1482277931 
                   1                    1          14.91996055                   -0                   -0                   -0                   -0                   -0                   -0         0.0253266995        0.01876084951        0.02876448649      -0.004006747027        0.01841747119       0.001355191466      -0.007524054934      6.783662998e-06 
                   0                   35           0.77125351         0.5703196723        0.09799304845        0.01837392423      2.840783139e-11      6.826986527e-53     1.914780139e-105         0.5834527459         0.4744342789         0.5176761921        0.07252107859         0.2789608394      5.689564478e-05        0.05907604057     -1.029347691e-22 
                   1                    2          -2.40047773         0.5876705598         0.1009742999         0.0189329158      2.927208545e-11      7.034684563e-53      1.97303367e-105         0.6014850336         0.4905317662          0.535569367        0.07271494019         0.2971033073      6.522575729e-05        0.02578264208      6.414858756e-22 
                   1                    1          14.90217352       0.002952624641      0.0005073237056      9.512437332e-05      1.470713129e-13      3.534426327e-55     9.913084354e-108       0.005859961585         0.0031084429       0.006015852059     -0.0001670888013       0.007402146812      5.791769943e-07       0.007715057167     -3.428443123e-24 
                   0                   36           2.15208669         0.4510809068         0.2085672859         0.2769304673        0.01198311037      1.262921972e-11      2.146943107e-23          2.850465628          2.872518075          1.684090168          1.474479187         0.2466424444         0.4428830579        -0.2534778739         0.1576172705 
                   1                    3          -0.01555338         0.2536082003         0.1172613898         0.1556967639       0.006737183972       7.10044171e-12      1.207061459e-23           1.72167325          1.647588579          0.966334556         0.8091224699         0.5991211397        0.09627256134         0.4969742553        0.02630534921 
                   1                    1           14.9372809      -0.003802158753      -0.001758012631      -0.002334245552     -0.0001010055786     -1.064516312e-13     -1.809657293e-25        0.03923405624        0.06275452558        0.01161389158       -0.02040638511        0.06357724963      -0.005556674745       -0.05274262558       -0.02681790051 
                   0                   37           2.82732809         0.3257931897         0.1227190405         0.1288319735      0.0006761768398      6.546548916e-17      1.003977776e-33          1.645825442          1.509277861          1.021693893         0.6447965272         0.2272038994         0.1825476839        0.02123133435        0.08286116559 
                   1                    4          -1.30364082         0.5769988573         0.2173426222         0.2281689851       0.001197548863       1.15943223e-16      1.778103556e-33          2.685423684          2.656504194          1.839047105          1.125540266         0.4803184253         0.3212986038        0.05603724222         0.2312677912 
                   1                    1          15.00431727       -0.01992070458      -0.007503685865      -0.007877462652      -4.13449989e-05     -4.002903409e-18     -6.138846762e-35        0.05535453736         0.1649377786       -0.08869974468       -0.02795424519       -0.08053207872       -0.01830407929        -0.1252689838        -0.0646015029 
                   0                   38           8.46694038        -0.7091767466        -0.1220831632       -0.02302895094      -3.74652031e-11     -1.123147344e-52    -4.151769392e-105        -0.7262049065        -0.5770477982        -0.6511886425       -0.08345606482        -0.3992200738      -0.002838693876        -0.1718874828     -5.258773835e-06 
                   1                    1          -1.33706685         0.4123213341        0.07098017947        0.01338922606      2.178258467e-11      6.530073264e-53     2.413873696e-105         0.4243954127         0.3075414027         0.3791106495        0.05026229114         0.2202699275       0.001546514361        0.08140508554      9.596240725e-06 
                   1                    1          14.91996055                   -0                   -0                   -0                   -0                   -0                   -0       0.001985391879      -0.005028102931       0.002096272283     -0.0001157761674       0.003533732258      8.263636671e-06         0.0126294943     -7.175657676e-07 
                   0                   39           5.03125371        -0.1957663768       -0.05307740115       -0.03229218533     -1.325735472e-06     -6.945166211e-29     -2.804269894e-57        -0.5401687576         -0.456740412        -0.4107638859        -0.1476589679        -0.1120398989       -0.02095814114        -0.3484620671       -0.00357302656 
                   1                    2          -2.40047773         0.8407653541          0.227953547         0.1386864848      5.693686893e-06      2.982767126e-28      1.204360529e-56          2.324970837          2.046514873          1.792394372         0.6087943854         0.8152178863          0.054220867        0.03183302147       0.004491824149 
                   1                    1          14.90217352       0.004224245132       0.001145303689      0.0006968004872      2.860670819e-08      1.498627346e-30      6.051051078e-59        0.02567745296        0.01949765039        0.02369223774       0.002224429719        0.01573432238      0.0003630465665        0.01052818936      7.723920446e-05 
                   0                   40           6.41208689         -0.497303695        -0.2159291906        -0.2687738612       -0.00650391875     -5.289816093e-13     -3.660661349e-26         -2.920161157         -2.780622682          -1.76638615         -1.402513508        -0.7345773215        -0.3381709715        -0.2957008467        -0.1698190806 
                   1                    3          -0.01555338          0.260539699         0.1131262987         0.1408118653       0.003407433025      2.771359044e-13      1.917837361e-26          1.546772024          1.673775884         0.9179958351         0.7485587563       -0.05337366235         0.3526329604        -0.5027506213       -0.03501047148 
                   1                    1           14.9372809      -0.003906077548      -0.001696018292       -0.00211108736     -5.108510405e-05     -4.154892087e-15     -2.875270634e-28       0.002865773085       0.000672051826      -0.003367790355      -0.005873953752      -0.006391506818       -0.03288995448        0.01615724868       -0.02324611565 
                   0                   41           7.08732829        -0.6735283564        -0.1732270331       -0.09443681999     -1.474290185e-06     -1.106522489e-30     -2.219293488e-61          -1.68133672         -1.434861013         -1.328023556        -0.4039994926        -0.7074232039       -0.03381925027        -0.1837035589      -0.004449175885 
                   1                    4          -1.30364082         0.5713402469          0.146944928        0.08010881137      1.250610031e-06      9.386402605e-31      1.882581004e-61          1.428580618          1.225835725          1.130599494         0.3423894876         0.5676885423        0.04457794265         0.1594445938       0.005425152165 
                   1                    1          15.00431727       -0.01972534284      -0.005073227554      -0.002765731588     -4.317691908e-08     -3.240626061e-32     -6.499551874e-63       -0.05649928872       -0.03245965711       -0.05076334148      -0.007042170613       -0.05572341595      -0.002817400215       -0.09543819901     -0.0004334558365 
                   0                   46           9.29125391        -0.1802014581       -0.02018921824     -0.0007445498143     -1.798063655e-18      -1.36080689e-84    -1.160076101e-167       -0.05119606218        -0.0375736783       -0.04869967521      -0.002730561009       -0.03508839093     -6.558507876e-09       -0.01705311181     -5.794750058e-48 
                   1                    2          -2.40047773         0.1254743897        0.01405776549      0.0005184305087      1.251992865e-18      9.475307017e-85     8.077617258e-168        0.03564767373          0.026099468        0.03390155348       0.001910184804        0.02441171429      3.992201329e-09        0.01230825781      3.696667129e-48 
                   1                    1          14.90217352      0.0006304191502      7.063022654e-05       2.60474286e-06      6.290369532e-21      4.760664714e-87     4.058425483e-170      0.0002324659797      8.331123973e-05      0.0002280382097      4.861933845e-06      0.0002145871434      2.061303035e-11      0.0004219134245      1.319968582e-50 
                   0                    8          -0.05306002         0.9092325462         0.1968793749        0.07160755061      3.252824998e-08      4.514180833e-39      3.503902196e-78          1.605230558          1.308057212           1.35003931          0.287832225         0.7521552694        0.01172216385          0.281073723      3.129035092e-11 
                   1                    1           1.13973315                   -0                   -0                   -0                   -0                   -0                   -0     -0.0006327622197       -0.02419607153     -0.0003356656405     -0.0001524412897      -0.006169851443       0.001530732489        0.01202981056      1.431239612e-10 
                   1                    1          14.91996055                   -0                   -0                   -0                   -0                   -0                   -0       0.005746727099       -0.07270662088       0.007278458962       -0.00166957042        0.01898921073      6.131865696e-05         0.1388988189      2.397658683e-12 
                   0                   10          -2.10791351        0.03564210199       0.003654870658      8.869829258e-05      6.068138873e-21      5.818867666e-93     3.854126798e-183       0.007152160883       0.005398099122       0.006833155461      0.0003484525141       0.004897122851      6.390283757e-10       0.001330320391      1.549186305e-46 
                   1                    3           2.46124662      -0.007458845477     -0.0007648571199     -1.856194841e-05     -1.269883302e-21     -1.217718158e-93    -8.065555797e-184      -0.001496068205      -0.001129745687      -0.001429409969     -7.281131576e-05      -0.001023339565     -1.202873876e-10     -0.0002773963037     -5.726091721e-47 
                   1                    1           14.9372809     -9.775898406e-05     -1.002456147e-05     -2.432812457e-07      -1.66436618e-23     -1.595996194e-95    -1.057108024e-185     -1.925725311e-05     -1.477103001e-05     -1.837026778e-05     -9.686905512e-07     -1.286783147e-05     -1.531483708e-12     -1.940892864e-06     -4.249419277e-49 
                   0                   11          -1.43267211         0.5501100552        0.07444529455       0.006043165651      8.811237546e-15      2.066862039e-69     3.355242158e-138         0.2884533397         0.2134728383         0.2697258498        0.02053824815         0.1779458463      2.859506346e-06        0.07294954699      2.624676907e-33 
                   1                    4           1.17315918      -0.003260506975     -0.0004412378938      -3.58178942e-05     -5.222427986e-17     -1.225030888e-71     -1.98865488e-140      -0.001724917367       0.001349565276      -0.001623479291       -0.00011165683      -0.001607600045      -4.66142504e-08      -0.002137465523      2.276850295e-33 
                   1                    1          15.00431727      -0.008228487618      -0.001113544787     -9.039302819e-05     -1.317975528e-16     -3.091590226e-71    -5.018735485e-140      -0.004616947669       0.002264347602       -0.00436353552     -0.0002779876785      -0.003029114184     -4.330599802e-08       0.001669683576     -3.925963764e-35 
                   0                    1           0.77125351         0.8186527518         0.2251594176         0.1409701204      7.454052868e-06      1.186902357e-27      1.922275721e-55          2.333680403          2.030571854           1.79629704          0.615340973         0.8460548333        0.06007515586         0.2370756491        0.00432649296 
                   1                    2           0.07632227         0.2533887187        0.06969115563        0.04363295441      2.307172243e-06      3.673690303e-28       5.94981182e-56         0.7237774594         0.6460751309         0.5605238235         0.1870782894         0.3263146121        0.01083173741        -0.2244213541     -0.0004251432297 
                   1                    1          14.90217352       0.004238279696       0.001165681769       0.000729822013      3.859067334e-08      6.144759365e-30       9.95189003e-58        0.02765419075       0.008620143241        0.03003157214       -0.00239878162        0.05581590354      0.0006652637629        0.05479215715      4.535685726e-06 
                   0                    2           2.15208669         0.4592979672         0.2038155444         0.2596155356       0.007730796798      1.568971093e-12      3.404187684e-25          2.776297367          2.855171968          1.643902539          1.383864836         0.2657652356         0.5356113235        -0.3360852038         0.1373784957 
                   1                    3           2.46124662        -0.2953828355        -0.1310774654        -0.1669634497      -0.004971815339     -1.009033706e-12     -2.189294712e-25         -1.795969938         -1.617914931          -1.09360339        -0.8547119764        -0.5651128529        -0.1583544648        -0.5838762249       -0.06660006342 
                   1                    1           14.9372809      -0.003871420315      -0.001717960225      -0.002188298078     -6.516284833e-05     -1.322484965e-14     -2.869388131e-27     -0.0006248683139      -0.003170025877        0.01046960909       -0.01900960867        0.06005175492      -0.003493746812       -0.05536848993        -0.0190217432 
                   0                    3           2.82732809         0.2065748147          0.170740863         0.3268167045         0.3861673725      0.0008803936768      1.236486995e-07          2.645622885          3.007362646         0.7965715419          2.256249258       -0.07422915945         0.7092786789        -0.1033555908          0.169708647 
                   1                    4           1.17315918      -0.005005012644      -0.004136807188      -0.007918301853      -0.009356283749     -2.133068104e-05     -2.995831343e-09       -0.05370308253        0.04467955065       -0.04848744977       -0.02651961757       -0.09621167189         0.2535544834         -0.349583536        -0.1997674157 
                   1                    1          15.00431727       -0.01263106777         -0.010439992       -0.01998328764       -0.02361229881     -5.383188754e-05     -7.560530095e-09       -0.02833928392        0.08681490951        -0.1404677995       -0.07398229564        -0.4151911304        -0.1998257784        -0.5345206768        -0.5713620132 
                   0                    4           8.46694038        -0.9092325462        -0.1968793749       -0.07160755061     -3.252824998e-08     -4.514180833e-39     -3.503902196e-78         -1.587809442         -1.318392715         -1.338883625        -0.2898583169        -0.6059595569       -0.04142405112        -0.2334469014       -0.03549761407 
                   1                    1           1.13973315                   -0                   -0                   -0                   -0                   -0                   -0       0.001042349818       -0.04247871329       -0.00265176167       0.002439238908       -0.01716785675     -0.0002296098938        0.01362811706      -0.002906716818 
                   1                    1          14.91996055                   -0                   -0                   -0                   -0                   -0                   -0       0.008831840985        -0.1165087237       0.005694685907     -0.0004263704805        0.01290340682     -0.0004164670603         0.0723186429      -0.007336066588 
                   0                    5           5.03125371        -0.1206129242        -0.1025643079        -0.1983076431        -0.2567681122     -0.0008765634819     -2.039045018e-07         -1.582480138         -1.855031148        -0.4658716598         -1.380944624         0.2637535834        -0.2195837613         0.3460326119        -0.4622236054 
                   1                    2           0.07632227         0.1555974652         0.1323137337         0.2558280285         0.3312453262       0.001130816261      2.630482914e-07          2.059549388          2.308073901         0.5790153803          1.801771161        0.08697710517         0.7759564183         0.1793610369        -0.1555087758 