ITEM: TIMESTEP
0
ITEM: NUMBER OF ENTRIES
588
ITEM: BOX BOUNDS pp pp pp
0 4.26
0 2.4768
0 30
ITEM: ENTRIES c_2[1] c_2[2] c_2[3] c_2[4] c_2[5] c_2[6] c_2[7] c_2[8] c_2[9] c_2[10] c_2[11] c_2[12] c_2[13] c_2[14] c_2[15] c_2[16] c_2[17] 
                   0                   98            4.8773438         -0.017006002      -0.001851812794       -5.9927424e-05     -4.940352801e-20     -5.542259012e-88    -2.667420084e-173      -0.004362111079      -0.003174461685      -0.004155371659     -0.0002262018177      -0.003033261569     -5.625686351e-11      -0.001910743563      1.499828245e-57 
                   1                    2            -5.032845         0.1614316444        0.01757856929      0.0005688687206      4.689692948e-19        5.2610601e-87     2.532082558e-172        0.04128933987        0.02996564584        0.03929395977       0.002182376006        0.02837928781       3.58138568e-09         0.0149986055      9.955274776e-58 
                   1                    1          15.04184854       0.001129046132      0.0001229437743      3.978643908e-06      3.279951525e-21      3.679563309e-89     1.770927892e-174      0.0002605820086       0.000190006344      0.0002459412869       1.60246626e-05      0.0001729130556      2.509009496e-11       0.000124950799      5.134586868e-60 
                   0                   68            4.2196222                   -0                   -0                   -0                   -0                   -0                   -0      -0.002221720963       -0.00835806129        -0.0013890401      -0.000835885545       0.005994283463       9.64380884e-05        0.04310729691     -5.275772753e-06 
                   1                    1          -3.74293877         0.8137120297         0.1388539779        0.02547174737      3.272168883e-11      3.518983774e-53     3.615938187e-106         0.8154399092         0.5551789723         0.7292500665        0.09585807457         0.4338689797        0.00312838091         0.1922435654      8.784776012e-06 
                   1                    1          15.08551536                   -0                   -0                   -0                   -0                   -0                   -0      -0.004973859359      -0.002734265639      -0.005159156947       0.000202895731      -0.006748469021      1.037936792e-06      -0.004452417587      3.502640314e-07 
                   0                   69            0.6173436         0.5075439718        0.07936106676         0.0109017884      1.230134698e-12      3.547549235e-59     7.140961378e-118         0.4054732514         0.3256620134         0.3659348236        0.04346740076         0.2075667615      1.181760188e-05        0.04251749699      3.174334988e-25 
                   1                    2            -2.556045         0.5307110451        0.08298353841        0.01139940545      1.286284751e-12      3.709478719e-59     7.466913778e-118         0.4223964121         0.3403972944         0.3807940696         0.0457455982         0.2177926009      7.825373769e-06        0.02973396322      4.693013067e-24 
                   1                    1          15.04184854       0.006152447858       0.000962014825      0.0001321514754       1.49116924e-14      4.300339066e-61     8.656273146e-120       0.002801169484       0.003211687257       0.002057949687       0.000817988342     -0.0008660773465      1.194085883e-07      -0.004428285791      4.619769634e-26 
                   0                   70           2.16082391         0.4402139379        0.09555719665        0.03497638575      1.678721479e-08      2.964109964e-39      3.108436138e-78          0.774996588         0.6603561881         0.6547269187         0.1415575606          0.313917193        0.02052414235        0.09394238962        0.01959340067 
                   1                    3          -2.51072525         0.7957099075         0.1727246722        0.06322166172      3.034377602e-08      5.357785073e-39      5.618662243e-78          1.395972344          1.165602792          1.173672147         0.2613541296         0.5352713544        0.03705198486         0.2128511392        0.03562218909 
                   1                    1           15.0777612       0.001658000847      0.0003599020825      0.0001317333964       6.32265677e-11      1.116388285e-41      1.170746609e-80       -0.01800558693        0.06756687468       -0.01284568567       0.002525864544       -0.02414792443       0.000339969387        -0.1514893782       0.004894355577 
                   0                   71           2.87157346         0.2129715053         0.0354647459       0.006013080356      3.971959667e-12       2.38730593e-55     6.690636146e-110         0.2014696444         0.1633006514         0.1816505439         0.0219829452         0.1103996167       0.000560030327      -0.004061805441      7.773856468e-05 
                   1                    4          -3.62790858         0.7644215417         0.1272940983         0.0215828317      1.425660925e-11       8.56878988e-55     2.401479198e-109         0.7228008107         0.5836781327         0.6476307159        0.08325509812         0.3668569774        0.00181186953        0.06781776102      0.0004792526241 
                   1                    1           14.9139681        0.02710189707       0.004513100903      0.0007652004179      5.054556097e-13      3.037989495e-56     8.514234422e-111        0.02724658923        0.02106929262        0.02497088165       0.002528297929        0.01705591251      4.996592862e-05       0.005300993602       3.16171175e-05 
                   0                   73            4.8773438        -0.1528691856       -0.03866473412       -0.02032969671     -2.309236501e-07     -4.292539982e-32     -1.505304931e-63        -0.3749879562        -0.2934573904        -0.3006298412       -0.08582195151        -0.1237908396       -0.01876437716        -0.3108079116      -0.001221735681 
                   1                    2            -2.556045         0.8754666319         0.2214290893         0.1164261524      1.322476792e-06      2.458294983e-31       8.62073172e-63          2.121141802          1.826571065          1.672005878         0.5136844696         0.8485833491        0.04847195508         0.1575159605       0.003455472558 
                   1                    1          15.04184854        0.01014914397       0.002566991848       0.001349709675      1.533126092e-08      2.849861868e-33      9.993875745e-65       0.009603857034       0.007136810434       0.005041658163       0.005484419333     -0.0005501154773       0.001616517527        0.02232916184      8.111235528e-05 
                   0                   74           6.42082411        -0.4619155389       -0.09782169865       -0.03358597352     -9.254023239e-09     -1.441247634e-40     -7.277713724e-81        -0.7733170308        -0.5858717069        -0.6497693614        -0.1393692759        -0.3686563455      -0.004878894549        -0.2389509387        9.5010855e-12 
                   1                    3          -2.51072525         0.7809216563         0.1653788983         0.0567809737      1.564499686e-08       2.43659586e-40      1.230381699e-80          1.300831987          1.091618821          1.088069903         0.2398794376         0.5958851396       0.008881806731         0.1582340465      8.919764853e-12 
                   1                    1           15.0777612       0.001627186938      0.0003445958771      0.0001183130958      3.259908894e-11      5.077073896e-43      2.563715595e-83      -0.009176218577        0.02640629468      -0.009692031755      0.0006209232964       -0.01586620888       0.000393542537       -0.06474614348      2.036359386e-12 
                   0                   75           7.13157366        -0.2810859802       -0.03791695069       -0.00304002738     -4.005258396e-15     -6.111526463e-70    -5.803982829e-139        -0.1447866595        -0.1053376184        -0.1352085497       -0.01050925966       -0.08851285879     -7.728118736e-06          -0.04038581     -5.130117466e-17 
                   1                    4          -3.62790858         0.4670593437        0.06300373321       0.005051383893      6.655235371e-15      1.015506194e-69      9.64403991e-139         0.2401522479         0.1827234426         0.2240783236        0.01764129776         0.1463061874      1.713344537e-05        0.05362345458      6.311021847e-17 
                   1                    1           14.9139681        0.01655918046       0.002233742247      0.0001790923971      2.359555483e-16      3.600388377e-71     3.419209987e-140       0.008952401853       0.001337584904       0.008476786302      0.0005224793292       0.006239618511      4.452238724e-07       0.004970631037      3.069986692e-18 
                   0                   80             9.137344        -0.1747411293       -0.01958271651     -0.0007230612843     -1.763592095e-18       -1.3882905e-84    -1.242366685e-167       -0.04910660675       -0.03579385731       -0.04655920821      -0.002786617091       -0.03287868211     -1.364515287e-08       -0.01601726066     -7.901410967e-42 
                   1                    2            -2.556045         0.1338421584        0.01499929099      0.0005538254409      1.350815195e-18      1.063354677e-84     9.515850068e-168        0.03767039467        0.02750168139        0.03571241326       0.002142020554        0.02526989262      6.538437895e-09        0.01382371966      9.926683995e-42 
                   1                    1          15.04184854       0.001551610634        0.00017388437      6.420409334e-06      1.565978347e-20      1.232729988e-86     1.103157206e-169      0.0003735043009      0.0006513119934      0.0003462011339      2.985215076e-05      0.0001915051068     -2.665823026e-11     -0.0002909224496      2.796475025e-43 
                   0                   42            -0.040378         0.7091767466         0.1220831632        0.02302895094       3.74652031e-11      1.123147344e-52     4.151769392e-105         0.7246602293         0.5250908546         0.6414290093        0.09238795906         0.3532235833        0.00290659678         0.1514949941      5.514739513e-06 
                   1                    1          -1.26613877         0.4123213341        0.07098017947        0.01338922606      2.178258467e-11      6.530073264e-53     2.413873696e-105         0.4177329511         0.3841496038         0.3708837466         0.0521207329         0.2103407793       0.001747359517         0.1222774818     -5.661757398e-07 
                   1                    1          15.08551536                   -0                   -0                   -0                   -0                   -0                   -0      -0.005436696744        0.01162714665      -0.006132793117      0.0007609950471      -0.008758392194     -1.609529505e-06      -0.006653156879      2.047669269e-07 
                   0                   44          -2.09917629        0.04412302686       0.004542611265      0.0001124306682      9.211550087e-21      1.727399361e-92     2.468588145e-182       0.008872406097       0.006684819019       0.008473453488      0.0004357652773       0.006056532842      6.389256799e-10       0.001745547045      5.993768695e-46 
                   1                    3          -0.03392525        0.00869072226      0.0008947385446      2.214498371e-05      1.814359283e-21      3.402384003e-93     4.862271578e-183       0.001747239846       0.001319020313       0.001668991405       8.54674792e-05       0.001192042743      1.157022444e-10      0.0003320011739      1.850785048e-46 
                   1                    1           15.0777612      5.414589665e-05      5.574498795e-06      1.379701207e-07      1.130402138e-23      2.119790819e-95     3.029346083e-185      8.307203901e-06       7.20067799e-06      7.683355008e-06      6.808928378e-07      3.603938438e-06     -3.994697941e-13     -2.829633113e-06      7.365744628e-49 
                   0                   45          -1.38842674         0.2684125625        0.03120552281       0.001356935448      1.250061554e-17       2.03360765e-81     1.328846104e-161        0.08471826468        0.06287483326        0.07990400899       0.005269928175        0.05470477987       3.42163199e-07        0.02729199205      9.629685789e-32 
                   1                    4          -1.15110858         0.1130390789        0.01314187206      0.0005714588458      5.264500491e-18      8.564321042e-82     5.596293194e-162        0.03564354497        0.02611800731        0.03366333276       0.002166621922        0.02302205926      1.126573247e-07       0.009577205125      1.402373701e-31 
                   1                    1           14.9139681       0.008210598755      0.0009545604884      4.150793984e-05       3.82387238e-19      6.220698572e-83     4.064870164e-163       0.002662403807       0.001646532286       0.002520398928       0.000155512866        0.00183577846      9.079108323e-09       0.001809911738      7.003619955e-33 
                   0                   34            4.2196222                   -0                   -0                   -0                   -0                   -0                   -0       0.004488866736        -0.1269996685       -0.02497697186        0.01014343582         0.2975359448        -0.1593122508         0.5546153027       -0.00711929303 
                   1                    1          -1.26613877         0.5572350607         0.2433932895         0.3048959963       0.007813167168      8.180428237e-13      7.761829956e-26          3.228415059          3.262016267          1.974210528          1.618987639         0.5822884314         0.4466146969        0.03435648445         0.1532915428 
                   1                    1          15.08551536                   -0                   -0                   -0                   -0                   -0                   -0       -0.07094731434       -0.03188273991       -0.08368970297        0.01752405088        -0.1137983905        0.01476478985       -0.05028511972      0.0007055378908 
                   0                   35            0.6173436         0.8369542047         0.2114911698         0.1109749035      1.238230463e-06      2.128089786e-31      6.766225053e-63           2.02948695          1.749471846          1.600977401         0.4879606743         0.7205521668        0.04382036308         0.2572807256       0.002769275067 
                   1                    2            -0.079245         0.2996970981        0.07573089365        0.03973796459      4.433863577e-07      7.620277545e-32      2.422854204e-63         0.7240852014         0.6568111541         0.5711382737         0.1735584548         0.3048755888          0.003962581        -0.2982489946      0.0006514350795 
                   1                    1          15.04184854        0.01014555859       0.002563695891       0.001345237744      1.500982926e-08      2.579670368e-33      8.202017785e-65       0.008616381854        0.01289450046      0.0002051791781       0.009541789012       -0.02734431217       0.001220912913        0.01582813741      5.993131744e-05 
                   0                   36           2.16082391         0.4566846021         0.2062947078         0.2676265024       0.009396006561      3.940694525e-12      2.117971464e-24          2.891533791          2.963316852           1.69224387          1.415800569         0.2695090642         0.4804216355        -0.2558330475        0.09985042845 
                   1                    3          -0.03392525         0.2760753611         0.1247094509         0.1617857991       0.005680081817       2.38223198e-12      1.280357897e-24          1.664356607           1.50947921          1.018981164         0.8505032179         0.4294317621        0.07502619918         0.4614786094         0.1234776601 
                   1                    1           15.0777612       0.001720035174      0.0007769785797       0.001007975735      3.538867241e-05      1.484204451e-14      7.977027028e-27       -0.07701165359       -0.04523881806       -0.08713441411        0.03312697223        -0.1690640939        0.01913901742        -0.0198299117        0.01216256831 
                   0                   37           2.87157346         0.3153320914         0.1231038283          0.135349235       0.001074863497      6.449618836e-16      9.666201553e-32          1.578307074          1.520510046          1.034226158         0.6831704595         0.3170161396         0.2313030808        0.07598806287         0.1594502983 
                   1                    4          -1.15110858         0.5524591148         0.2156768495         0.2371306968       0.001883151612      1.129967678e-15      1.693510207e-31          2.791342275          2.732655056          1.805215034          1.201575671         0.4165376955         0.3915105256        -0.0097218165         0.1818234789 
                   1                    1           14.9139681         0.0401278935          0.015665698        0.01722399919      0.0001367828049      8.207525488e-17      1.230081926e-32         0.1246923909        0.07303124993         0.1704489896        0.06560766838         0.1772410939        0.07321399966         0.2530989975         0.3768830358 
                   0                   38            8.4796224        -0.7091767466        -0.1220831632       -0.02302895094      -3.74652031e-11     -1.123147344e-52    -4.151769392e-105        -0.7180437967        -0.5972438755        -0.6365799202       -0.09065451098        -0.3642094424      -0.003135269661        -0.1924693255     -1.796912722e-05 
                   1                    1          -1.26613877         0.4123213341        0.07098017947        0.01338922606      2.178258467e-11      6.530073264e-53     2.413873696e-105         0.4194038566         0.2408320099         0.3710205977        0.05372204566           0.20400656       0.001707032363        0.07079743574      2.812850081e-05 
                   1                    1          15.08551536                   -0                   -0                   -0                   -0                   -0                   -0      -0.005212878884        0.02451973283      -0.005527091998      0.0003351595497      -0.008588815716     -1.804336708e-05       -0.01919243312      4.535632716e-06 
                   0                   39            4.8773438        -0.1024110236       -0.08059603308        -0.1514176048        -0.1510422816     -0.0001630872129     -9.001029412e-09         -1.280151246         -1.484617489        -0.4713634421        -0.9823896398        -0.1649602127        -0.3460519463        0.05455624555       -0.05392794239 
                   1                    2            -0.079245         0.2008457946         0.1580628113         0.2969562073         0.2962201333      0.0003198423345      1.765258114e-08          2.435364089          2.708465569         0.7462071413          2.064477062        -0.1167061211         0.5935193273       -0.04190048579          0.182557665 
                   1                    1          15.04184854       0.006799174201       0.005350854327        0.01005277201        0.01002785392      1.082752942e-05      5.975876893e-10        -0.1504013982       -0.06052688107       -0.06366396597        0.08873274283         0.1106949291         0.1590573241         0.1954807728         0.4702280869 
                   0                   40           6.42082411        -0.4999458347        -0.2131639445        -0.2601134874      -0.005264986823     -1.949325761e-13     -5.045346288e-27         -2.815607441         -2.684402271         -1.717922512         -1.391545735        -0.5704205901        -0.3260943479          -0.30840292         -0.145647994 
                   1                    3          -0.03392525         0.2826754891         0.1205255012         0.1470713469       0.002976887939      1.102172625e-13      2.852700495e-27          1.682405554          1.861817103         0.9503394228         0.8044252704      -0.008588756565         0.3482825028        -0.4601133458        0.05712697725 
                   1                    1           15.0777612       0.001761156019      0.0007509112747      0.0009163001313      1.854693567e-05      6.866877489e-16      1.777320935e-29       -0.08756065496       -0.05831133765       -0.06287099021        0.01374553693       -0.09869183739        0.05373361691        -0.1485302194        0.01715279562 
                   0                   41           7.13157366        -0.6829916855        -0.1772646882       -0.09852851795     -1.824035994e-06     -2.893223647e-30     -1.478026766e-60          -1.73285733         -1.536796213         -1.342543157        -0.4473225733        -0.6490644746       -0.04420081803         0.1315755483      -0.005044695619 
                   1                    4          -1.15110858         0.5539478132         0.1437724477        0.07991262297      1.479404173e-06      2.346580414e-30      1.198769637e-60          1.398078459          1.191665474          1.080291043         0.3658069743         0.4538643109        0.05277831396         0.4358941851       0.006807188846 
                   1                    1           14.9139681        0.04023602517        0.01044291843       0.005804457086      1.074565909e-07      1.704439775e-31      8.707268835e-62         0.1103367532        0.07218453446        0.09473295815        0.01899489408        0.08213151346       0.007360587375         0.1344761393       0.001096552217 
                   0                   46             9.137344        -0.7511969567         -0.122642281       -0.01948677488     -7.450104359e-12     -4.193197649e-56    -6.107566477e-112        -0.6662112978        -0.5397534085        -0.5965520651       -0.07691927968        -0.3342755608     -0.0008818439555       -0.04833333013     -0.0002839115303 
                   1                    2            -0.079245         0.1970370984         0.0321687661       0.005111332714      1.954143894e-12      1.099865342e-56     1.601999537e-112          0.175461387         0.1433424142         0.1569080819        0.02046302757        0.08397786874      0.0002061516139        0.00771502936      8.284355289e-05 
                   1                    1          15.04184854       0.006670239519       0.001088999872       0.000173032458      6.615306422e-14      3.723342117e-58     5.423202386e-114       0.003329799061        0.00352311113       0.002487606941      0.0009240735071      -0.001316169006     -1.144093591e-05      -0.001625163356      8.963072121e-06 
                   0                    8            -0.040378         0.9092325462         0.1968793749        0.07160755061      3.252824998e-08      4.514180833e-39      3.503902196e-78          1.597761232          1.332209269          1.328626967         0.3028105218         0.7186973266       0.007380612512         0.1824346752      1.016103463e-14 
                   1                    1           1.21066123                   -0                   -0                   -0                   -0                   -0                   -0      0.0002500038156       -0.02424243019       0.001214785832      -0.001080919965        0.02216933338     -0.0003996921808         0.1334288108     -4.695211363e-14 
                   1                    1          15.08551536                   -0                   -0                   -0                   -0                   -0                   -0       -0.01456839885        0.02387693936       -0.01713724792       0.002821223617        -0.0410330196      0.0001181219656        -0.1827964154      2.197494397e-15 
                   0                   10          -2.09917629        0.04587853885       0.004727255964       0.000117477547      9.988047947e-21      2.148658479e-92     3.597716882e-182       0.009253241649       0.006876487232       0.008848571569      0.0004421905376        0.00646989905      9.391540424e-10       0.002379639893      7.541505101e-46 
                   1                    3           2.44287475      -0.008946662239     -0.0009218506841     -2.290901062e-05     -1.947744929e-21     -4.190046624e-93    -7.015820161e-183      -0.001804349956      -0.001344411615      -0.001725455477     -8.620828421e-05      -0.001258524664     -1.546081834e-10     -0.0004582385529     -2.248811928e-46 
                   1                    1           15.0777612      5.630018608e-05      5.801086894e-06      1.441634351e-07      1.225690643e-23      2.636742042e-95      4.41496471e-185      8.549119252e-06      8.837897868e-06      7.896037611e-06      7.123182138e-07       3.22433762e-06      1.029191938e-12     -1.287285079e-05      9.254782817e-49 
                   0                   11          -1.38842674         0.5640532398         0.0770705302       0.006492055835      1.281321528e-14      1.087527003e-68     8.774692337e-137         0.2987751533         0.2266619439         0.2784228535        0.02237025088         0.1829907712      5.352393657e-05         0.0668328075      3.949249163e-17 
                   1                    4           1.32569142       -0.01156964785       -0.00158084172     -0.0001331626069     -2.628198512e-16     -2.230694474e-70     -1.79983188e-138      -0.006036220518      -0.003164152224      -0.005612869028     -0.0004617639214      -0.002471992531     -4.542019063e-07       0.004541554234      -8.80471192e-18 
                   1                    1           14.9139681        0.01725409119        0.00235754688      0.0001985885648       3.91949499e-16      3.326687758e-70     2.684132118e-138       0.009556130157       0.004359787332       0.008973507407      0.0006400962374       0.005938926346      1.338975594e-06      -0.002122014259      1.977172493e-18 
                   0                    1            0.6173436         0.8407195138         0.2150498186         0.1158690949      1.631487408e-06      7.784103702e-31      8.863915477e-62          2.089738527          1.794623485          1.645605122         0.5053245524         0.8120678244         0.0389808978         0.2163682981       0.002711996462 
                   1                    2             2.397555        -0.2770037701       -0.07085551071       -0.03817703241     -5.375492723e-07     -2.564738938e-31     -2.920519822e-62        -0.6850310212        -0.5951933361        -0.5366204422        -0.1685069023        -0.3048092184      -0.003514830098        0.05431440494     -0.0003939760203 
                   1                    1          15.04184854        0.01019120167        0.00260683383        0.00140456513      1.977688982e-08      9.435890251e-33      1.074483805e-63       0.008811367298        0.02543880745     -0.0001417514517        0.01011602299       -0.04093620329       0.001020777859       -0.08625271248      6.600117737e-05 
                   0                    2           2.16082391         0.4560738851         0.2066489424         0.2689158408       0.009707595442      4.602486604e-12      2.883283699e-24          2.917322808          3.002021034          1.713335098          1.405142276         0.2507560681         0.4434875031        -0.2408332295         0.1133231453 
                   1                    3           2.44287475        -0.2729652585        -0.1236816749        -0.1609491014      -0.005810103111     -2.754639076e-12     -1.725677145e-24         -1.628426457         -1.422321409          -1.00527843        -0.8517916675        -0.6312479862       -0.07419872069        -0.4374854111        -0.1136348477 
                   1                    1           15.0777612       0.001717734998      0.0007783127523       0.001012831838      3.656222595e-05      1.733458673e-14      1.085946265e-26       -0.08863244473       -0.05449890241       -0.08823820644        0.03402309187          -0.22072577        0.01604794095       -0.02590347783         0.0129511944 
                   0                    3           2.87157346         0.1995153829         0.1672923279         0.3218723599         0.3985633163       0.001117311697      2.031811084e-07          2.650831824          2.969242626         0.8217347816           2.19190353        -0.1450755006         0.5973382201        -0.1398199569       0.006418805605 
                   1                    4           1.32569142       -0.01702482389       -0.01427520215       -0.02746565284       -0.03400975991     -9.534119426e-05     -1.733762349e-08        -0.2105389096        -0.3180726841       -0.04224983083         -0.214260629         0.2078236376        0.02086958503         0.2361537015        -0.2581895343 
                   1                    1           14.9139681        0.02538952505         0.0212889487        0.04096018175        0.05071956437      0.0001421845921      2.585601054e-08         0.2779829358          0.144967759         0.2410863253         0.1728377024         0.8016395983         0.3811599831         0.8749757722         0.4479094063 
                   0                    4            8.4796224        -0.9092325462        -0.1968793749       -0.07160755061     -3.252824998e-08     -4.514180833e-39     -3.503902196e-78         -1.573751085         -1.325964138         -1.309040705        -0.3044173613        -0.5924848321       -0.04137045036        -0.2098020398       -0.02324644848 
                   1                    1           1.21066123                   -0                   -0                   -0                   -0                   -0                   -0      0.0009966586749       -0.03676211743      0.0008579987419     -0.0009617688005       0.007636785802     -0.0006280464537        0.09271878404      -0.006849850016 