ITEM: TIMESTEP
0
ITEM: NUMBER OF ATOMS
24
ITEM: BOX BOUNDS pp pp pp
0.0000000000000000e+00 8.5199999999999996e+00
0.0000000000000000e+00 7.3785360000000004e+00
0.0000000000000000e+00 3.0000000000000000e+01
ITEM: ATOMS id type c_1[1] c_1[2] c_1[3] c_1[4] c_1[5] c_1[6] c_1[7] c_1[8] c_1[9] c_1[10] c_1[11] c_1[12] c_1[13] c_1[14] 
1 1          14.02339351          12.65560283          6.139596514         0.3459712696      0.0001478993325      1.710185366e-08          49.08648492          43.90508329          36.48627572          14.78378398          15.29135249           2.62663644          2.980814797         0.7709168754 
2 1          13.98199116           12.6144274          6.089542219         0.3486750959      9.704003967e-05      4.176004323e-09          48.66218839          43.40483048            36.238182          14.51475108          15.35667486          2.518646186          3.105267615         0.6309427056 
3 1          14.01672867          12.64497135          6.098464849         0.3264713877      0.0001128968088      8.858631479e-09           48.7991946          43.48754109          36.42311064          14.51310243          15.45404038           2.52135916          3.241803588         0.7844929694 
4 1          14.04797524           12.6811454          6.157406919         0.4089601964      0.0003680979171      9.287502943e-08          49.34562918          44.11815182          36.60883619          14.93530403          15.39900603          2.681759761          3.218709019         0.7854097137 
5 1          14.09008138          12.71811146           6.15269748         0.3370755124      0.0001837938385       3.24211152e-08          49.58707295          44.17219843          36.97587277           14.7935536          15.81197656          2.536711631          3.493742954         0.8038893317 
6 1            14.089715          12.71703206          6.154872606         0.3974350593      0.0003051823537        5.1369273e-08          49.53226918           44.2209886          36.84983215          14.88132082          15.67991466          2.621185622          3.332383811         0.8245266642 
7 1          14.06360388          12.69608953          6.159903481         0.3235545192      0.0001157114146      1.147953758e-08          49.50382563          44.15980528          36.84427303          14.83543802          15.62440883          2.621195091          3.479812778         0.7084283476 
8 1          14.05157564          12.68602695          6.149456112         0.3387964372      0.0001570793371      2.196025074e-08          49.42292413          44.07562099          36.81262159          14.77890395          15.65839851          2.600272749           3.36883369         0.7135757614 
9 1          14.03458167          12.66894017          6.124542453         0.3118897104        5.4226175e-05       1.22152061e-09          49.18294448          43.91659885          36.72918045          14.62811677          15.51822225          2.531523897          3.154823192         0.8158305715 
10 1          14.03393699          12.66823209          6.155459914         0.3744858013      0.0001672774326      1.775639953e-08          49.24316685          43.98954779          36.56009396          14.89826672          15.36252454          2.663416951          3.040572314         0.8647742856 
11 1           14.0340865          12.67305832           6.18293848         0.3778042426      0.0003050640098      8.529597364e-08          49.48489048          44.27500702          36.66926473          15.04868659          15.48126934          2.636435652          3.080849724         0.8598385405 
12 1          14.08338923          12.71791645           6.20759854          0.397986745      0.0003521319642      1.035776807e-07          49.83714204          44.59359533          36.88408833          15.20804168          15.60096388           2.69003668          3.332712969         0.8322977954 
13 1          14.10873503          12.75171145          6.244827543         0.4130935571      0.0003407070729      8.914960622e-08          50.41421885          45.08650126          37.27954163          15.39170032          15.70816325          2.777756021          3.423839879         0.7481054937 
14 1          14.12912497           12.7603412          6.212281394         0.3915784229      0.0003194800684      8.792478747e-08          50.15455716           44.7236062          37.20645281          15.18823711          15.83684295          2.639704535          3.512898845         0.8170539312 
15 1          14.12515943          12.74894876          6.190754186         0.4453220136      0.0003600280651      6.229887827e-08          49.78481578          44.52284385          36.90256934          15.16585632           15.6532954          2.652524888          3.406838898         0.8583344447 
16 1          14.08763227          12.71720748          6.176814685          0.363546626      0.0002123489641      3.975141504e-08          49.79341454          44.47709314          36.96550694          14.97890179          15.59128717          2.589461852          3.171652055          0.621918441 
17 1          14.02687162          12.65059374          6.104493629         0.3700315629      0.0001404888518      9.678577073e-09          48.77868783          43.49256011          36.27650119          14.63682741           15.5153066          2.485235399          3.364232532         0.7367864656 
18 1          14.02711132           12.6516674          6.077977587         0.3236221661      6.595488734e-05      1.866733718e-09          48.79982054          43.36529216          36.46602913          14.40377479          15.60950882          2.419849823           3.47062006         0.6418958949 
19 1          14.05219576          12.67864325          6.128774646         0.4202377356      0.0003668956237      1.037454569e-07          49.16780117          43.84070274          36.52147665          14.78857042          15.52421131          2.540283071          3.421438038         0.7175191707 
20 1          14.04533209          12.67124436          6.118884471         0.3097044236      6.842332675e-05      2.486449958e-09           49.0806367          43.75925759          36.61976461          14.60303711          15.53438467          2.513298981          3.169127552         0.7721629821 
21 1            14.086537          12.71722238          6.184243541          0.405554304      0.0002137583578       2.29779499e-08          49.70751611          44.45690351          36.84088989          15.08421252          15.48743254          2.737256423          3.040185568         0.6972228964 
22 1          14.09564287          12.73791655          6.234485589         0.3235188696      7.226883625e-05      2.932729602e-09          50.36607482          45.05236932           37.3329127          15.23822412          15.63809043          2.673660325          3.144028929         0.6694873378 
23 1          14.07336018          12.71585346          6.216065939         0.3684371091      0.0002652025762      6.608423525e-08          50.03308234          44.70448816          37.06384909          15.19475482          15.60511365          2.679426119          3.300967886         0.7324755613 
24 1           14.0552363          12.68745542          6.173308441         0.4666137122      0.0004213869969      8.363658228e-08          49.41731878          44.17065952          36.53127645          15.11124839          15.44686769          2.640528042          3.404498781         0.8345026841 
