ITEM: TIMESTEP
0
ITEM: NUMBER OF ATOMS
4
ITEM: BOX BOUNDS pp pp pp
0.0000000000000000e+00 4.2600002000000003e+00
0.0000000000000000e+00 2.4767999999999999e+00
0.0000000000000000e+00 3.0000000000000000e+01
ITEM: ATOMS id type c_1[1] c_1[2] c_1[3] c_1[4] c_1[5] c_1[6] c_1[7] c_1[8] c_1[9] c_1[10] c_1[11] c_1[12] c_1[13] c_1[14] 
1 1          13.95716478          12.59796928          6.093679589         0.3391622155      0.0001636436918      2.427339252e-08          48.61674793          43.34089866           36.2252711          14.52155951          15.32193271          2.461780141          3.093932429          0.606747886 
2 1          13.96075508          12.60120673          6.111720797         0.3655106336      0.0001854563417      2.523727448e-08          48.56920933          43.36667653          36.13348604          14.67119865          15.18410578          2.580216189          3.071582289         0.8535353251 
3 1          13.95617023          12.59679855           6.12121214         0.3814779072      0.0001441946127      8.305850768e-09          48.56975179          43.37397526          36.05040949          14.75984265           15.1808459          2.596413585          3.167752253         0.8323002709 
4 1          13.95185432          12.59252569          6.103212576          0.355420567      0.0001223819631      7.341968811e-09          48.60554436          43.33910028          36.13549008          14.61120726          15.31241616          2.469813801          3.211917706         0.5890296258 
