ITEM: TIMESTEP
0
ITEM: NUMBER OF ENTRIES
588
ITEM: BOX BOUNDS pp pp pp
0 4.26
0 2.4768
0 30
ITEM: ENTRIES c_2[1] c_2[2] c_2[3] c_2[4] c_2[5] c_2[6] c_2[7] c_2[8] c_2[9] c_2[10] c_2[11] c_2[12] c_2[13] c_2[14] c_2[15] c_2[16] c_2[17] 
                   0                   78          -2.03707192         0.4502078535        0.09729980853        0.03521669796      1.533312314e-08      1.767442016e-39      1.087976213e-78         0.7833511976         0.7756545865         0.6624801107         0.1418749653          0.301847621        0.01689016944          0.105222529        0.02002978335 
                   1                    3          -2.48866383         0.7897118261         0.1706740762        0.06177378435      2.689590726e-08      3.100278796e-39      1.908424465e-78          1.376969938          1.056994985          1.156654487         0.2522229145         0.5152390909        0.02895857502          0.213525797        0.02176374902 
                   1                    1          15.03639323       -0.01289321052      -0.002786506066      -0.001008548156     -4.391153619e-10     -5.061662478e-41     -3.115784464e-80       -0.02656896617         0.1948926383       -0.02383942814      -0.003047122354       -0.01630893749      -0.000460550124       -0.03356255647     -8.650410976e-05 
                   0                   79          -1.36223241         0.2098539254        0.03341913436       0.004885843184      9.285945535e-13      2.544091642e-58     8.510550813e-116         0.1763082695         0.1427007066         0.1597699767        0.01820622305        0.09642613275      3.656893576e-06      -0.005065880237      1.319312714e-23 
                   1                    4          -3.73704993         0.7231698696         0.1151644459        0.01683692393      3.199995429e-12      8.767100339e-58     2.932789515e-115         0.6075322094         0.4887868893         0.5478873735        0.06561026042          0.310633615      2.443632263e-05        0.05773784606      4.716427212e-24 
                   1                    1          14.98502909      -0.001332690202     -0.0002122302589      -3.10278463e-05     -5.897096569e-15     -1.615640974e-60    -5.404677403e-118      -0.000715715609     -0.0006764398615      -0.000651754591      -7.03553176e-05      -0.000305423588      1.980029262e-08      0.0008680622333     -3.087437724e-25 
                   0                   68           0.07522952                   -0                   -0                   -0                   -0                   -0                   -0      -0.001525442297       -0.00908683468     -5.118183748e-05      -0.001541950047       0.009216797079      0.0001132127246        0.04930529494     -5.847808656e-06 
                   1                    1          -3.73706541         0.8137120297         0.1388539779        0.02547174737      3.272168883e-11      3.518983774e-53     3.615938187e-106         0.8155958762         0.5553650195         0.7297281238        0.09513408168         0.4284463411       0.001842916436         0.1956777317      2.056069984e-05 
                   1                    1           14.9759004                   -0                   -0                   -0                   -0                   -0                   -0      0.0008882046409       0.001118449892      0.0007826621768      0.0001120139808     -0.0003592212151     -4.019728707e-06      -0.002249683731       2.42268527e-07 
                   0                   69           0.70656449       -0.02685161663      -0.003072509597     -0.0001245540568     -6.497863991e-19      -1.06431923e-83    -4.050501461e-165      -0.008182180175      -0.006005197371      -0.007745938699     -0.0004777790285      -0.005508340414     -3.032664285e-08      -0.003903252315      4.715460475e-32 
                   1                    2          -4.88478703         0.2594982962         0.0296932217       0.001203710226      6.279639167e-18      1.028575041e-82     3.914469071e-164        0.07888615467        0.05753572701        0.07478953465       0.004482741497        0.05302959916      1.317959145e-07        0.02839046082      6.731482586e-31 
                   1                    1          14.94974486       0.001112434074      0.0001272908226      5.160142822e-06      2.691996319e-20       4.40936199e-85      1.67807991e-166      0.0003933008912      0.0002887014812      0.0003745548443      2.049775637e-05      0.0002704996288      6.275347203e-10      0.0001655910054      2.143899244e-33 
                   0                   70           2.22292828         -0.455650149       -0.09787070252       -0.03486468962     -1.322397417e-08      -8.33602107e-40     -2.414175415e-79        -0.7874716603         -0.585097726        -0.6631782985        -0.1400401351        -0.3770950866      -0.004949121367        -0.1786071377      -6.87024429e-12 
                   1                    3          -2.48866383         0.7860852013         0.1688460128        0.06014837615      2.281392955e-08      1.438125899e-39       4.16492252e-79          1.355898777           1.12572881          1.139775283         0.2435487599         0.6360662405       0.008168098775         0.2262827784     -2.193769354e-12 
                   1                    1          15.03639323       -0.01283400052      -0.002756660235     -0.0009820109697     -3.724710543e-10     -2.347952678e-41     -6.799850411e-81       -0.02611162992        0.07271265741        -0.0240283492      -0.002402029626       -0.02613978914     -0.0001409651576       -0.08583688358      6.120762435e-14 
                   0                   71           2.89776779        -0.2568188463       -0.03404583953      -0.002550753308     -1.932141234e-15     -2.828618025e-71    -1.446086996e-141        -0.1260503219       -0.09365960909        -0.1181621303      -0.008647360549       -0.07871654899     -9.697848312e-07       -0.03179273176     -2.528712958e-33 
                   1                    4          -3.73704993         0.4507197919         0.0597508085       0.004476599037      3.390928304e-15      4.964254554e-71     2.537897974e-141         0.2211416948         0.1610019966         0.2072631667        0.01521317478          0.137575168       1.77529275e-06        0.05532517248      8.966856381e-34 
                   1                    1          14.98502909     -0.0008306068546     -0.0001101114972     -8.249679541e-06     -6.248956321e-18     -9.148353222e-74    -4.676953379e-144     -0.0003024973726      -0.003732291749     -0.0002868975731     -1.706060078e-05     -0.0002421480456      2.268563398e-09     -0.0007480682117     -7.920172062e-35 
                   0                   49          -6.29707212       0.007514484052      0.0007603710003      1.727026012e-05      6.298540352e-22      5.331059344e-95     2.305045472e-186       0.001430551026       0.001061953722       0.001369284666      6.692492441e-05       0.001002095549      7.144348797e-11       0.000367177541      2.322471763e-48 
                   1                    3          -0.01186383       0.001448578686       0.000146577891      3.329214692e-06      1.214179343e-22      1.027676536e-95     4.443471725e-187      0.0002757673438      0.0002048056798       0.000263957189      1.290098934e-05      0.0001931275392      1.386398219e-11      7.072789586e-05     -2.490522381e-50 
                   1                    1          15.03639323      -7.13356699e-05     -7.218269984e-06     -1.639481256e-07     -5.979260749e-24     -5.060822365e-97    -2.188200304e-188     -1.360302647e-05     -1.006516491e-05     -1.302339785e-05     -6.331742838e-07     -9.556233984e-06     -6.786257101e-13     -3.661101358e-06     -2.204743028e-50 
                   0                   50          -5.62223261         0.1906811932        0.02123831177      0.0007626410707      1.481098662e-18      4.734413416e-85     1.394977978e-168        0.05223502236        0.03854771505        0.04959165728       0.002891681546        0.03523681407      4.485706633e-08        0.01711467557      8.188796739e-32 
                   1                    4          -1.26024993        0.08289238555       0.009232658442      0.0003315331555      6.438589945e-19      2.058130724e-85     6.064208558e-169        0.02271484792        0.01679770838        0.02157746727       0.001243963873        0.01536101164      1.316355959e-08       0.006970357983      3.922715696e-32 
                   1                    1          14.98502909     -0.0003055166426     -3.402882896e-05      -1.22193246e-06     -2.373072472e-21      -7.58565681e-88    -2.235086645e-171     -6.906402943e-05     -7.023020683e-05     -6.370465963e-05     -5.860498095e-06     -3.101489317e-05     -1.980417969e-10      8.284739182e-05     -6.704245823e-35 
                   0                   42          -4.18477068         0.7091767466         0.1220831632        0.02302895094       3.74652031e-11      1.123147344e-52     4.151769392e-105         0.7258011757         0.5666504411         0.6442526069        0.09037270652         0.3627678099       0.001849943257         0.1386624641      6.752664092e-07 
                   1                    1          -1.26026541         0.4123213341        0.07098017947        0.01338922606      2.178258467e-11      6.530073264e-53     2.413873696e-105         0.4200039112         0.3217676161         0.3741309698        0.05097898188         0.2233682793       0.001184392607         0.1192270486     -4.535245137e-08 
                   1                    1           14.9759004                   -0                   -0                   -0                   -0                   -0                   -0       0.001172500634        -0.0574935507        0.00143177193     -0.0002835237541       0.003244289072     -1.885797128e-06        0.02157220391      1.190732975e-08 
                   0                   43          -3.55343571         0.5395211669        0.08676686435        0.01311180439      3.288623047e-12      2.988271055e-57     4.466076218e-114         0.4639195385         0.3748351059         0.4168753718        0.05174150576         0.2300843815      2.162399962e-05         0.0414530745     -4.773071225e-24 
                   1                    2          -2.40798703         0.5389050822        0.08666778438        0.01309683189      3.284867735e-12      2.984858718e-57      4.46097636e-114          0.462433913         0.3733001866         0.4160617011        0.05102725417         0.2361218629      1.691229335e-05        0.03424655164      4.173372604e-23 
                   1                    1          14.94974486       0.003888886565      0.0006254184521      9.451032337e-05      2.370450461e-14      2.153955743e-59     3.219162633e-116        0.00489168788        0.00288211921       0.004767370657       0.000140054712       0.005279941244      2.414154044e-07       0.005602293535     -6.491630205e-25 
                   0                   44          -2.03707192         0.4722406516         0.2094510935         0.2666508286       0.007902046854      1.569958196e-12      3.316934034e-25          2.879048239          2.897483331          1.721059628          1.402564351         0.2610794365         0.4160931397        -0.1957513484         0.1260515649 
                   1                    3          -0.01186383         0.2746292074          0.121805244         0.1550694661       0.004595396134      9.130013978e-13      1.928946527e-25            1.6838175          1.568934058         0.9902875555         0.8198004222         0.5758848735        0.07909925604         0.3685810531        0.07114954293 
                   1                    1          15.03639323       -0.01352419353      -0.005998333928      -0.007636440016     -0.0002263015912     -4.496101383e-14     -9.499152102e-27       -0.03643192482        0.04238547268       -0.08278427284       -0.02437449885       -0.09145223587       -0.01883268543        -0.1216748092       -0.08610011385 
                   0                   45          -1.36223241         0.3413416282         0.1255115363         0.1275487449      0.0005004033413      1.344753828e-17      4.156860334e-35          1.506259418          1.306469714          1.067019348         0.6198200186         0.2988852586         0.2117782435        0.05785978411         0.3134410869 
                   1                    4          -1.26024993         0.5881405575         0.2162596614          0.219769825      0.0008622080513      2.317046035e-17      7.162379129e-35          2.744662904          2.709795388          1.821584963          1.085924042         0.4629306176         0.3198769752         0.0336472791        0.07958172082 
                   1                    1          14.98502909       -0.00216771091     -0.0007970686963      -0.000810006114     -3.177842058e-06     -8.539941523e-20     -2.639839607e-37       -0.01677910551        -0.3259261813      -0.001299051875       -0.00293018075        0.01081287264       0.001798953077        0.03968224521        0.04025855828 
                   0                   34           0.07522952                   -0                   -0                   -0                   -0                   -0                   -0        0.01483910077        -0.1429587157      -0.000423240124      -0.007889901289         0.3790911456        -0.1419085368          0.641544575       -0.02126310415 
                   1                    1          -1.26026541         0.5572350607         0.2433932895         0.3048959963       0.007813167168      8.180428237e-13      7.761829956e-26          3.233760405           3.26149512          2.005267123          1.591020824         0.5729355237         0.4590127081        0.04134490582           0.15272017 
                   1                    1           14.9759004                   -0                   -0                   -0                   -0                   -0                   -0        0.01156043456        0.01687011107        0.01142677877       0.001157168412       -0.01616820439       0.005494969464       -0.02823347667      0.0008992254105 
                   0                   35           0.70656449        -0.1492982771       -0.03982016056       -0.02343023361     -7.163350971e-07     -1.028201348e-29     -8.234962264e-59        -0.4019295805        -0.3161687699        -0.3129292798        -0.1033173369       -0.09283961088       -0.02526943012        -0.4098039213      -0.003445801421 
                   1                    2          -2.40798703         0.8571279257         0.2286092799         0.1345139939       4.11251106e-06      5.902948818e-29      4.727727781e-58          2.300316447          1.999316798          1.791207165         0.5845500521         0.8833638943        0.06745849554         0.1352980818       0.006634319652 
                   1                    1          14.94974486       0.006185269698       0.001649707132      0.0009706897947      2.967700535e-08      4.259729424e-31      3.411657759e-60        0.02697428926        0.01977832315        0.02401477293       0.003497721135        0.01502831973       0.001045705353        0.01996621006       0.000142699863 
                   0                   36           2.22292828        -0.4830209438        -0.2111633351        -0.2647705103      -0.006842490803     -7.435913587e-13     -7.391476894e-26         -2.879195459         -2.772844413         -1.731002302         -1.387763188        -0.6285651283        -0.2989743064        -0.2791079257        -0.1338589261 
                   1                    3          -0.01186383         0.2762688023         0.1207770438         0.1514382196        0.00391363307      4.253047342e-13      4.227631317e-26          1.643760272          1.744362246         0.9612499214         0.8236994592       -0.02949609672         0.3405347874         -0.436954404        0.05427622137 
                   1                    1          15.03639323       -0.01360493584      -0.005947699914       -0.00745761825      -0.000192727975     -2.094425275e-14     -2.081909081e-27       -0.03928024624        0.03806466296       -0.08541340513       -0.02016069134        -0.1111898225       -0.02777559184          -0.11287457       -0.08454031198 
                   0                   37           2.89776779        -0.6618672445        -0.1716611294       -0.09527149391      -1.74070547e-06      -2.60621882e-30     -1.238783193e-60         -1.683794748         -1.471482873         -1.322138969        -0.4133331811        -0.6767866896       -0.03248489652        0.08680637942       -0.00280209028 
                   1                    4          -1.26024993         0.5807901926         0.1506330782        0.08360097853      1.527473483e-06      2.286963651e-30      1.087035406e-60          1.473845606          1.261680755          1.151486178          0.369085661         0.5190797517        0.04173712915         0.3346822862       0.004337383128 
                   1                    1          14.98502909      -0.002140619655     -0.0005551886583     -0.0003081283053     -5.629812281e-09     -8.429066819e-33     -4.006488721e-63      -0.002418969278      -0.006190474867      -0.001746106137     -0.0008097712054       0.001740431706     -0.0002115162369        0.03503136812     -0.0002179159546 
                   0                   38           4.33522972        -0.7091767466        -0.1220831632       -0.02302895094      -3.74652031e-11     -1.123147344e-52    -4.151769392e-105        -0.7223635593        -0.5643112124        -0.6443417682       -0.08667353854        -0.3750994879       -0.00232596346        -0.1819786923     -2.673144853e-06 
                   1                    1          -1.26026541         0.4123213341        0.07098017947        0.01338922606      2.178258467e-11      6.530073264e-53     2.413873696e-105         0.4217206037         0.3188282261         0.3744077507        0.05244856929         0.2092726087        0.00121343505        0.06172701367      4.507706272e-06 
                   1                    1           14.9759004                   -0                   -0                   -0                   -0                   -0                   -0       0.001113539792       -0.05407670027       0.001271598348     -0.0001713463243       0.002941603082      1.745771026e-06        0.02319191493      -3.22610395e-08 
                   0                   39           4.96656469         -0.233860692       -0.02718441264      -0.001181296707     -1.082414441e-17     -1.722864928e-81     -1.09574916e-161       -0.07499734673       -0.05541486281       -0.07095386337      -0.004424053663       -0.04942690491     -2.703564349e-08        -0.0239694709     -1.680312739e-40 
                   1                    2          -2.40798703         0.1732927933        0.02014388463      0.0008753510658      8.020784521e-18      1.276657796e-81     8.119595942e-162        0.05560486743        0.04111083848        0.05259047388       0.003298613027        0.03667134428      1.229648454e-08        0.01927127603      1.743536575e-40 
                   1                    1          14.94974486       0.001250528224      0.0001453637846      6.316772865e-06       5.78801763e-20      9.212712065e-84     5.859322655e-164      0.0004869982187      0.0001981091512      0.0004727281374      1.567317404e-05      0.0004328518587      5.822512116e-11      0.0008568716848      8.782241734e-43 
                   0                   15          -6.29707212       0.004674410809      0.0004723625098      1.065738988e-05      3.639927976e-22      2.345985721e-95     7.426356701e-187      0.0008848512106      0.0006627228611      0.0008469672238      4.137857376e-05      0.0006167521586      4.284649094e-11      0.0001902801866      1.608973852e-48 
                   1                    3           2.46493617     -0.0009157667307     -9.254083326e-05     -2.087895883e-06     -7.131005551e-23     -4.596035225e-96    -1.454902163e-187     -0.0001733511866     -0.0001298484449     -0.0001659296884     -8.106111549e-06     -0.0001208130356     -8.416688295e-12     -3.726008531e-05     -1.344512996e-49 
                   1                    1          15.03639323     -4.437460033e-05     -4.484179597e-06     -1.011715563e-07     -3.455416217e-24     -2.227065249e-97    -7.049906907e-189     -8.408716003e-06     -6.289804588e-06      -8.04984111e-06     -3.919832841e-07     -5.871413073e-06     -4.068995735e-13     -1.858977083e-06     -1.527413169e-50 
                   0                   16          -5.62223261         0.5207639171        0.06912586226       0.005205359375      4.109712416e-15      7.168371555e-71     4.558863059e-141         0.2548089048         0.1772872564         0.2388328782        0.01752868119         0.1601574195      1.959307687e-05        0.06883675825      2.591151597e-17 
                   1                    4           1.21655007     -1.414915142e-06     -1.878149119e-07     -1.414295721e-08     -1.116608531e-20     -1.947645972e-76    -1.238642725e-146     -2.838331509e-05      0.0002050496391     -1.690516149e-05     -1.359060746e-05     -0.0001736418566     -1.030643609e-06      -0.001542952713      4.124010075e-18 
                   1                    1          14.98502909      -0.000834387707     -0.0001107560793     -8.340224294e-06     -6.584737166e-18     -1.148543689e-73    -7.304383367e-144     -0.0002494202627        0.03436603798     -0.0002118010374     -4.136128835e-05     -8.120125338e-05     -8.524145661e-08      5.778209215e-05      4.856035986e-20 
                   0                    8          -4.18477068         0.9092325462         0.1968793749        0.07160755061      3.252824998e-08      4.514180833e-39      3.503902196e-78          1.598452448          1.254640091           1.33214952         0.2996576154         0.7403756118       0.007014068312         0.3094493824      8.158673663e-15 
                   1                    1           1.21653459                   -0                   -0                   -0                   -0                   -0                   -0     -0.0003312594435       0.001334927967     -0.0002876966165      5.140596911e-05      -0.002538100019      0.0006855800627       -0.02218612794      4.676288145e-14 
                   1                    1           14.9759004                   -0                   -0                   -0                   -0                   -0                   -0       0.003068772138        -0.5782178582       0.003987126314     -0.0009961768023       0.007129620687      7.066252567e-05         0.0150337208      1.117929923e-15 
                   0                    9          -3.55343571         0.8454413234         0.2152416248         0.1147981424      1.478066788e-06      4.761860197e-31      3.319752127e-62          2.077326528          1.790023063          1.635716921         0.5021226818         0.7889628118        0.03617020343         0.1904804658        0.00262032201 
                   1                    2           0.06881297         0.2674072211        0.06807943159        0.03630985546      4.675022635e-07      1.506143321e-31       1.05001455e-62         0.6562886922         0.5723725331         0.5167370579         0.1586508493         0.3049142207       0.003728104848        -0.1137376563      0.0001735504915 
                   1                    1          14.94974486       0.006093969256        0.00155146881      0.0008274688394      1.065395471e-08      3.432364711e-33      2.392888405e-64        0.02472758345        0.01097549117        0.02418500948      0.0007905019865        0.03370054092       0.000568287194        0.05345961378     -3.293601151e-05 
                   0                   10          -2.03707192         0.4731823484         0.2088689793         0.2645836815       0.007495951319       1.22147417e-12      2.014404741e-25          2.861480067          2.903522158          1.701849117          1.405978241         0.2665066512          0.473832872         -0.245568737         0.1149748056 
                   1                    3           2.46493617        -0.2796578084        -0.1234446745        -0.1563728925      -0.004430218762     -7.219094088e-13     -1.190543174e-25         -1.692792049         -1.552733412         -1.007448141         -0.823383595        -0.5592996861       -0.07564901592        -0.4594637494       -0.08958521911 
                   1                    1          15.03639323       -0.01355116217      -0.005981663137      -0.007577240333     -0.0002146716847     -3.498100599e-14     -5.768922996e-27       -0.04067668589        0.03735582048        -0.0818893442       -0.02471366993       -0.08997899802       -0.01955059456        -0.1445923325       -0.08531533641 
                   0                   11          -1.36223241          0.222394972         0.1764438003         0.3325499434         0.3414851834      0.0004190496015      2.713866049e-08          2.697263416          3.086416409         0.9043727593          2.241729563       -0.03149295551         0.6694591454       -0.06603989798         0.2616997285 
                   1                    4           1.21655007     -2.394967195e-06     -1.900119907e-06     -3.581223973e-06     -3.677447402e-06     -4.512737135e-09     -2.922557151e-13       -0.01114048717        0.02543483546       -0.02008505635        0.01970412648       -0.02459866224        0.06716413807        -0.1826648669       0.001052190092 
                   1                    1          14.98502909      -0.001412332887      -0.001120517157      -0.002111878777      -0.002168622566     -2.661200152e-06     -1.723457251e-10          1.125526119          1.570268508       0.006995697032       -0.01362309086        0.04057777077       -0.03960456158       -0.07069107801        -0.0743532281 
                   0                    1           0.70656449       -0.09028316173        -0.0789455926        -0.1540820418          -0.21727452      -0.001080911689     -4.025459214e-07         -1.609343857          -1.54813983        -0.3770533551         -1.061047642       -0.02960637203        -0.4531333997        0.08504971971        0.04323791614 
                   1                    2           0.06881297          0.164128302         0.1435174158         0.2801100826         0.3949894682       0.001965019797      7.317995659e-07          1.991836331          2.498749648         0.5839322744          2.013796471        -0.1377336445         0.5864383483       -0.04001053715          0.326754329 
                   1                    1          14.94974486       0.003740335892       0.003270632395       0.006383456007       0.009001453536      4.478102791e-05      1.667705172e-08        -0.2250926288        -0.2280768782        0.09216298867       0.009452541607         0.2074761657        0.05110881027         0.2884777726         0.1515166207 
                   0                    2           2.22292828        -0.4839321986        -0.2105751289        -0.2627157352       -0.00649077592     -5.785295861e-13     -4.488860795e-26         -2.872285705         -2.788069504         -1.705188142         -1.398532388        -0.5564787223        -0.2940135391        -0.2775258602        -0.1224497965 
                   1                    3           2.46493617        -0.2812972343        -0.1224018603        -0.1527098423      -0.003772919678     -3.362842419e-13     -2.609258343e-26         -1.649895735         -1.728727754         -0.982175688        -0.8231514476      5.029837515e-05        -0.3390192387         0.4219316448       -0.07506843824 
                   1                    1          15.03639323       -0.01363060256      -0.005931132295      -0.007399742741     -0.0001828214513     -1.629506547e-14     -1.264348139e-27       -0.03442456955        0.04523138355       -0.08405089471        -0.0210012489       -0.09916374044       -0.02719156136        -0.1171856564       -0.08460413418 
                   0                    3           2.89776779        -0.6675926493        -0.2498191639        -0.2599773608       -0.00126161791     -8.648533201e-17     -8.615593534e-34         -3.095541836         -3.038949306         -2.071471728         -1.317851576        -0.5239228926        -0.4125857949       -0.05693300671        -0.2849714553 
                   1                    4           1.21655007     -3.661361946e-06     -1.370114517e-06     -1.425826387e-06     -6.919249052e-09     -4.743223338e-22     -4.725157824e-39      0.0001837187043        0.01049603806      -0.008892115792       0.008933022642       -0.02686217078      0.0003430720723       -0.02665817838      2.535654914e-05 
                   1                    1          14.98502909      -0.002159136833     -0.0008079683907      -0.000840822163     -4.080341061e-06     -2.797119861e-19     -2.786466472e-36          0.533510805          1.330948365       -0.00124840646      -0.002938104821        0.02137289733      -0.006410597081       -0.01692730107        -0.0365114311 
                   0                    4           4.33522972        -0.9092325462        -0.1968793749       -0.07160755061     -3.252824998e-08     -4.514180833e-39     -3.503902196e-78         -1.574289818         -1.276684737         -1.322494741        -0.2985769845        -0.5995652626       -0.03663394401        -0.2461430206       -0.03563197483 
                   1                    1           1.21653459                   -0                   -0                   -0                   -0                   -0                   -0     -0.0001384569552      0.0002366336418      -0.001443562911       0.001368933304      -0.004186346957     -7.733347704e-06       -0.00926002133     -1.241879387e-06 