ITEM: TIMESTEP
0
ITEM: NUMBER OF ATOMS
24
ITEM: BOX BOUNDS pp pp pp
0.0000000000000000e+00 8.5199999999999996e+00
0.0000000000000000e+00 7.3785360000000004e+00
0.0000000000000000e+00 3.0000000000000000e+01
ITEM: ATOMS id type c_1[1] c_1[2] c_1[3] c_1[4] c_1[5] c_1[6] c_1[7] c_1[8] c_1[9] c_1[10] c_1[11] c_1[12] c_1[13] c_1[14] 
1 1          13.98372055          12.61882943          6.126282655         0.3961828736      0.0001711016538      1.123854943e-08          48.72702169          43.56993174          36.14368964          14.79206625          15.24910157          2.602184993           3.24862372         0.8757952497 
2 1          14.10521993          12.73858335          6.176983586         0.3345854783      7.925452093e-05      2.977218494e-09          49.96555787          44.56655896          37.22111645          14.91809467          15.78946368          2.534672696          3.272600743         0.7560016143 
3 1          14.16840587          12.80013833          6.238201253         0.3610413811      0.0002256541083       4.65225992e-08          50.73176221          45.27021557          37.67163487          15.25057475          15.91633724          2.568546309          3.311598075         0.6242421338 
4 1          14.07976612          12.69885425          6.118716564         0.3664273854      0.0002218478161      4.049916793e-08          49.27098612          43.93943989          36.71030506          14.66411297          15.45712023          2.505288079           3.09408738         0.5578467521 
5 1            14.041005          12.65846063          6.079016628         0.3514240753      0.0002201616141      4.062295284e-08          48.73185335          43.42179665          36.39747948          14.42929856          15.33137198          2.541118188          3.052231455         0.6368397756 
6 1          14.06210368          12.70012672          6.180520962          0.350432252      9.348094682e-05      3.617700498e-09          49.65744449          44.40361055           36.9414773          14.97308614           15.7279966          2.594778061          3.335249486         0.8887277455 
7 1          13.99470955          12.63095186          6.117655918         0.3643751621      0.0001417130639      1.076065943e-08          48.93208969          43.61308918          36.37730586          14.67449599          15.51165014          2.522637544          3.310025582          0.678110721 
8 1          13.93225157          12.56218318          6.073653998         0.3820943173      0.0001619796476      1.248213625e-08          48.05693761          42.94250275          35.67647448          14.51943884          15.07980998          2.586878165            3.2059142         0.7351883916 
9 1          14.02604734           12.6552631          6.137130703          0.391754316       0.000184418717      1.774291101e-08          48.99702467          43.85467887          36.35929136          14.84276942          15.25991945          2.615765268          3.051843561         0.8353585511 
10 1          14.01135326          12.64617728          6.119646309         0.3459851516      0.0001118870323      6.784553692e-09          48.94609736          43.67716924          36.46380217          14.66162609          15.49786228          2.511758859          3.370307416         0.8475266062 
11 1          14.07436802          12.70035573          6.126772998          0.322880934         7.161201e-05      2.484944486e-09          49.40377901          43.97542944          36.86834579           14.6396536          15.76052018          2.424395755          3.369715157         0.6590912958 
12 1          14.10672644          12.74404475          6.243876305          0.413853052      0.0002311377415      2.646276012e-08          50.32605419          45.06979096          37.16021732          15.41412952          15.50112376          2.711049079          3.145615672          0.710010945 
13 1          14.06413014          12.69306971          6.168695861         0.4029924288      0.0002130144708       2.47550692e-08          49.43289662           44.2056031          36.67571861          14.99350336          15.40790982           2.65065328          3.166279357         0.8744469922 
14 1          13.99017789          12.60148526          5.975664455         0.2676234429      4.914612942e-05      2.135388485e-09          47.81167329          42.40888536          36.05942432           13.7635543          15.56323469          2.273121756          3.296707753         0.7532699326 
15 1          13.90957428          12.53242755          5.968260616         0.2934865698      4.677788433e-05      1.085396045e-09          47.39727224          42.05154005          35.59717281          13.80313298          15.24384085          2.311364092          3.186734077         0.7083984238 
16 1          13.96929122          12.59150895          6.053313535         0.3564771851      0.0001507840542      1.594195981e-08          48.12345415          42.91054839          35.88346602          14.34544091          15.15563181          2.483513824          3.134479057          0.777195403 
17 1          14.11416184          12.74384035          6.197244017         0.3677234662       0.000142100927      1.154378164e-08          50.00795585          44.67731142          37.11345469          15.09676185          15.53675748          2.628805508          3.182698549         0.7823233581 
18 1          14.14490782          12.77821583          6.216693585         0.3451998725      8.462504517e-05      2.717309529e-09          50.46518013          45.04147441          37.52043312          15.13668627          15.91968648          2.557638991          3.337639232         0.7699542192 
19 1          14.18347506          12.83278136          6.333542371         0.3807472729      0.0001351943595      7.447228057e-09           51.4866381          46.13050607          38.01956356          15.82188161          15.93845244          2.793912166          3.299589926         0.9200537159 
20 1          14.19066769          12.83922981          6.372359266         0.4658892832      0.0003986079271      7.098490959e-08          51.69340855          46.42427295          37.90936016          16.17182479           15.7003821           2.90835122          3.269310142         0.8323356965 
21 1          14.12200187          12.77585319          6.344095348         0.4432773001      0.0003580173073       6.56318448e-08          51.21214284          46.01108586          37.53748677          16.01405087          15.52132621          2.919697114          3.206581611         0.6902920927 
22 1          14.08042394          12.72639792          6.235566222         0.3868696106      0.0002412285046       4.50517278e-08          50.26126269          44.95017079          37.22803653          15.28634734          15.72265577          2.656614273          3.206203062         0.8499883633 
23 1          14.04487228          12.67491163          6.119912556         0.3231828958      8.479758173e-05      4.822592829e-09          49.20306585          43.80724093          36.73291494          14.59921744          15.65716427          2.435357636          3.306955278         0.7292269158 
24 1           14.0416231           12.6753804          6.161718169         0.3783420769      0.0001705843191      1.500369678e-08          49.44700528          44.21644876          36.65106131          14.94289734          15.27989738           2.56779778          3.038128583         0.6337116886 
