ITEM: TIMESTEP
0
ITEM: NUMBER OF ATOMS
4
ITEM: BOX BOUNDS pp pp pp
0.0000000000000000e+00 4.2600002000000003e+00
0.0000000000000000e+00 2.4767999999999999e+00
0.0000000000000000e+00 3.0000000000000000e+01
ITEM: ATOMS id type c_1[1] c_1[2] c_1[3] c_1[4] c_1[5] c_1[6] c_1[7] c_1[8] c_1[9] c_1[10] c_1[11] c_1[12] c_1[13] c_1[14] 
1 1          13.96275571          12.60359541          6.105622324         0.3459275535      0.0001203076161      9.359194292e-09          48.65380737          43.37670851          36.22747089          14.60026039          15.32937234           2.52142216          3.172533772         0.7218635297 
2 1          13.96056458          12.60135588          6.110701398         0.3574553098      0.0001272912514      9.552120634e-09          48.62787534          43.37337549           36.1792785          14.65127144          15.26024487          2.547562521          3.160919796         0.8059243842 
3 1          13.96124994          12.60180535          6.118899247         0.3757478907      0.0001919043924      2.629380244e-08          48.61893482          43.38651262          36.12910403          14.72241229          15.27130493          2.595205668          3.238474005         0.8433729937 
4 1          13.96293723          12.60362646          6.114253405         0.3644597838      0.0001849207574       2.61008761e-08          48.65012837          43.39989721          36.17384582          14.67446469          15.33550774          2.570535401          3.248803043         0.7406338404 
