ITEM: TIMESTEP
0
ITEM: NUMBER OF ATOMS
24
ITEM: BOX BOUNDS pp pp pp
0.0000000000000000e+00 8.5199999999999996e+00
0.0000000000000000e+00 7.3785360000000004e+00
0.0000000000000000e+00 3.0000000000000000e+01
ITEM: ATOMS id type c_1[1] c_1[2] c_1[3] c_1[4] c_1[5] c_1[6] c_1[7] c_1[8] c_1[9] c_1[10] c_1[11] c_1[12] c_1[13] c_1[14] 
1 1           14.0398208          12.67177408          6.155589089         0.3936258123      0.0002684838208       5.69538059e-08          49.24891463          44.02013768           36.5229534          14.92881065          15.40888589          2.654711886          3.327952784         0.7863828228 
2 1          14.04437269          12.68103179            6.1518387          0.328628343      7.651429834e-05      3.009497584e-09          49.38262145          44.07012659          36.80311094          14.79162631          15.63503237          2.553721492          3.389362599         0.8959985655 
3 1          14.03662093          12.67598595          6.176985473         0.3655324212       0.000156311899      1.646257467e-08          49.53832306          44.29993958          36.71673961           14.9995691          15.41815762           2.61809646            3.0616319         0.6915909594 
4 1          14.01860804          12.66033195          6.185482518         0.3974539613      0.0002136969746      2.326716347e-08          49.40107311           44.3010185          36.52433455          15.11240752          15.22612015          2.705625091          2.923035605          0.815702474 
5 1          14.02245625          12.64964976          6.116826054          0.366635962      0.0001361812848      9.448414791e-09          48.98358635          43.70802928          36.42381592          14.67389824          15.44156275          2.482438405          3.183763285         0.6856124845 
6 1          14.04847047           12.6796385          6.135301917          0.306142573      6.044698267e-05      2.064144552e-09          49.25994581          43.94454062          36.75367259           14.6805721          15.53085602          2.552435534          3.335421288         0.8105941715 
7 1          14.07087988          12.69401507          6.104291457         0.3466554956      0.0001341660245      1.016155701e-08          49.11773241          43.72500521          36.72831502          14.54088614          15.70412701          2.495264884          3.334850252         0.8094666726 
8 1          14.07071889          12.68532146           6.07684866         0.3382352953      0.0001150842776      8.421121042e-09          48.84709856          43.45612964          36.55370791          14.39932906          15.63596876          2.472213699          3.348124145         0.7478149873 
9 1          14.07129392          12.70626792          6.204077945         0.3941893115      0.0001862923404      1.688013692e-08          49.79112122          44.55140756          36.83098553          15.18599987          15.58066012          2.644644843          3.253869973         0.7434620173 
10 1          14.04803107          12.68346067          6.185814551         0.4394151846      0.0003560118887      6.872758144e-08          49.52285821          44.25347976          36.59422542          15.14548468           15.5497236          2.617382911          3.333359588         0.7326367578 
11 1          14.03913774          12.67615721           6.15535711         0.3409424507      8.620944401e-05      3.390064471e-09          49.39177263          44.07618003          36.74471048          14.83937374          15.59104646          2.591280738          3.337670547           0.71641561 
12 1          14.05756902           12.6847729          6.111863961         0.3185366655      9.886601115e-05      5.391053803e-09          49.20737156          43.80114273          36.76530317          14.54645519          15.56851272          2.567654948          3.322437265         0.6202818881 
13 1          14.06127111          12.69042839          6.158794194         0.3912580947      0.0001652045031      1.155862917e-08          49.43086852          44.13819962          36.66004438           14.9375653          15.46890206           2.64445373          3.252484941          0.675191893 
14 1          14.05945438          12.68157713          6.114442826         0.3602113836      0.0001245521184      8.514792901e-09          49.05247448          43.73877526           36.5387144           14.6524166          15.52844244          2.515732389          3.185746621         0.7511666352 
15 1          14.06069176          12.68702958          6.106056406         0.3057878787      5.532272252e-05      1.463230182e-09          49.20866267          43.80296036           36.8176952          14.50145728          15.63585553          2.441561752          3.276760016         0.7403872813 
16 1          14.05672173          12.70415878          6.224299303         0.3686853912      0.0001225377305      6.518546882e-09          50.07032098          44.78874671          37.05713398          15.24487921          15.51915452          2.671178255          3.314396602         0.7570142868 
17 1          14.07859346           12.7075334          6.162950309         0.3547031791      0.0001331849534      9.659141314e-09          49.55977746          44.21500702          36.85807226          14.89473075          15.58432468          2.587212319          3.356718199         0.8421388889 
18 1          14.09220974          12.71869138          6.153764678         0.3744445979      0.0001435246064      9.714406839e-09          49.52986046          44.21675784          36.86739231          14.86525583          15.61084519          2.588025175           3.25380113         0.8245874627 
19 1          14.09220382           12.7101699          6.093609397         0.2998813564      7.163793827e-05      2.971695452e-09          49.21494085          43.76402393          36.88427905          14.41733717          15.69874081          2.444592224           3.15123317          0.698287522 
20 1           14.0736048          12.69910277          6.151820404         0.3737243908      0.0001486958172       1.20494992e-08          49.41946066           44.1437399          36.70454035           14.8709864          15.51262673          2.571171683          3.090812976         0.6794496185 
21 1          14.05082895          12.69071413           6.19940592         0.4077219701      0.0002333882725      2.640523358e-08          49.68609754          44.52508238          36.75458806          15.17054386           15.4459169          2.765816249          3.189844498         0.7761121695 
22 1          14.07475706          12.71674518          6.236646263          0.393213319      0.0001823906278      1.782392418e-08          50.06484714          44.75802129          36.96611669           15.3637152          15.70147243          2.702085294          3.477183993         0.7950823182 
23 1          14.07453299          12.72533075          6.266536506         0.4349989886      0.0004310259409      1.455230645e-07          50.37604798          45.15042469          37.11471719           15.5593398          15.58477939          2.749578991          3.332941203         0.8301737152 
24 1          14.07509811          12.71276372          6.209436942         0.4093655817       0.000415087838      1.453758161e-07          49.93005453          44.68277893          36.91949833          15.21530729          15.48042356          2.714660826          3.093234111          0.640782461 
