ITEM: TIMESTEP
0
ITEM: NUMBER OF ENTRIES
3720
ITEM: BOX BOUNDS pp pp pp
0 8.52
0 7.37854
0 30
ITEM: ENTRIES c_2[1] c_2[2] c_2[3] c_2[4] c_2[5] c_2[6] c_2[7] c_2[8] c_2[9] c_2[10] c_2[11] c_2[12] c_2[13] c_2[14] c_2[15] c_2[16] c_2[17] 
                   0                  166          -0.09144453         0.2734815352        0.03686406569       0.002947223069      3.793810437e-15      5.245655914e-70     4.405786723e-139         0.1405032747         0.1038359173         0.1316322509       0.009722305779        0.08653173236      1.349996591e-06        0.03610317379      2.081295076e-31 
                   4                    9          -3.69238015         0.4705074081        0.06342225623       0.005070507909      6.527007078e-15      9.024813929e-70     7.579872953e-139         0.2415993985         0.1829770051         0.2261613797        0.01692300792         0.1487575125      2.326540076e-06        0.04790016901       1.14914622e-31 
                   1                    1          14.93239556       0.007329920599      0.0009880399211      7.899221082e-05      1.016826575e-16      1.405953836e-71     1.180849992e-140       0.004561907853      -0.004746376443       0.004332088299      0.0002520492526       0.003244867399      4.010103903e-08       0.001882473061     -2.756988191e-33 
                   0                  170          -1.37255975        0.04912194624       0.005132097376      0.0001364629128      2.120884878e-20      4.265226509e-91     9.805449997e-180        0.01057729056       0.007939655802        0.01009694202      0.0005249144078       0.007279329543      8.773952482e-10       0.002278807274      2.536739297e-52 
                   4                   16          -3.70008258        0.05833143302       0.006094273889      0.0001620472694      2.518512878e-20      5.064880231e-91     1.164379658e-179        0.01256311208       0.009416314894        0.01199293825      0.0006230684609       0.008660816593      9.819451531e-10       0.002765834476      4.338086316e-51 
                   1                    1          15.02951032     -0.0002502601717     -2.614634941e-05     -6.952336906e-07      -1.08052114e-22     -2.172992725e-93    -4.995554507e-182     -5.359630433e-05     -3.813483209e-05     -5.141579748e-05     -2.383433884e-06      -3.92235003e-05     -3.569236187e-12     -2.402330732e-05     -8.119930855e-53 
                   0                  123           0.79623916         0.0193900967       0.002013872181      5.203259665e-05      6.275399735e-21      4.926764704e-92     3.729890853e-181        0.00408432852        0.00305461942       0.003897314205       0.000204284823       0.002783142976      2.543408663e-10      0.0009848772304      7.343829862e-50 
                   4                   10          -4.91644312        0.06068426991       0.006302720657      0.0001628439604      1.963982218e-20      1.541906282e-91     1.167326325e-180        0.01277608192       0.009561085682        0.01219142127      0.0006386619661       0.008692121505      9.313926069e-10       0.003042398678      6.794045285e-50 
                   1                    1          15.08686922     -0.0007781987693     -8.082439594e-05     -2.088267186e-06     -2.518558018e-22     -1.977299179e-93    -1.496947909e-182     -0.0001667861115     -0.0001217232399     -0.0001596710241     -7.773023758e-06     -0.0001173960729     -1.118071199e-11      -4.94344595e-05     -1.922272428e-51 
                   0                  124           2.08859279         0.0250860865       0.002832109755      0.0001081054305      3.457882155e-19      7.995632842e-85     2.705136243e-167       0.007291298875       0.005672320462        0.00691619961      0.0004106435959       0.004962158303     -1.902439219e-11       0.002866337296      -1.52234015e-52 
                   4                   11          -4.94353528         0.2332773181        0.02633599179       0.001005280154      3.215509424e-18      7.435196343e-84     2.515525599e-166        0.06749103275        0.04953594881        0.06403784044       0.003777065783        0.04529475747      1.243198452e-08        0.02066720197      8.024983735e-53 
                   1                    1          15.09469253      -0.003275645716     -0.0003698061148     -1.411599575e-05     -4.515170936e-20     -1.044039311e-85    -3.532263968e-168       -0.00100593371     -0.0007543345574     -0.0009637277347      -4.62041858e-05     -0.0007561003451     -1.489939457e-10     -0.0005091855153      1.529439187e-54 
                   0                  125           2.85610472       -0.01792998158      -0.003089970749     -0.0005848845133     -9.797317973e-13     -3.334111644e-54    -1.443913125e-106       -0.01474313468       -0.02951004987       -0.01433642493     -0.0005498315506       -0.01606581963     -0.0001707788875       -0.01019354581      9.094476193e-06 
                   4                   12          -3.72960649         0.8209369287         0.1414765032        0.02677935245      4.485771551e-11      1.526546673e-52     6.611058696e-105         0.8483406489         0.6631362911         0.7589501504        0.09930594759           0.45384609       0.002997575325         0.1875897286      1.957828561e-05 
                   1                    1           15.0016889       0.001138135129      0.0001961409854      3.712650835e-05      6.219009039e-14      2.116382311e-55     9.165476512e-108       0.001723560712        0.01035367325       0.001571169804      0.0001744768212      0.0005635444243      1.695976271e-05       -0.01057143146     -1.243585023e-06 
                   0                  129           4.33411488        -0.2315667427       -0.03688491622      -0.005396504531     -1.031991474e-12     -2.903686372e-58    -1.004188932e-115        -0.1954217124        -0.1564468804        -0.1772525502       -0.02000679685        -0.1088029729     -4.100630831e-06       -0.01075249429     -2.492409157e-25 
                   4                   13          -3.71383194         0.7167399209         0.1141653228        0.01670313356      3.194195672e-12      8.987421581e-58     3.108141899e-115         0.6101091538         0.4887030494          0.551464215        0.06451638453         0.3186880443      1.986130463e-05        0.06584925555      4.808502638e-26 
                   1                    1          15.00627815      0.0003266156608      5.202470416e-05      7.611554546e-06      1.455582841e-15      4.095533892e-61     1.416368463e-118      0.0005768248382      0.0001201473645      0.0005917529227      -1.30225728e-05       0.001315697887      1.360125938e-07       0.001650882901       -5.7557722e-27 
                   0                  176           -2.2145023         0.2259513076         0.0260864869        0.00110011861      7.907450687e-18      4.711681039e-82      8.86995007e-163        0.07025039959        0.05154322937        0.06640198447       0.004212554388        0.04644766287      1.354764674e-07        0.02581433957      9.251370936e-30 
                   4                   23          -2.36524826         0.1620259067        0.01870618381      0.0007888766706      5.670300742e-18      3.378667733e-82     6.360492965e-163        0.05036372727        0.03662891834        0.04757425883       0.003054107117        0.03319717533      1.272497158e-07        0.01902438575      4.937891485e-30 
                   1                    1          14.91936004        0.00405888545      0.0004686056623      1.976202513e-05      1.420458101e-19      8.463847285e-84     1.593357067e-164        0.00143634083       0.000774418829       0.001375145079      6.703772384e-05       0.001081845198      4.100745217e-09       0.001338263005       6.92091572e-32 
                   0                  177          -1.35172027         0.7219740458         0.1293075087        0.02759141816      1.278359284e-10      3.619427365e-50     3.918970585e-100         0.8129572629         0.6774202904         0.7151681715          0.108788569         0.4001626061       0.003204949038         0.2188883816      2.901874661e-06 
                   4                   24          -1.32175918         0.4429169243        0.07932762181        0.01692679417       7.84248361e-11      2.220447737e-50     2.404211631e-100         0.5006033314         0.3078620622         0.4377910174        0.06970004595         0.2313453866       0.001817756178        0.06991273919      6.657613515e-06 
                   1                    1          15.08835205       -0.01405767985      -0.002517768569     -0.0005372372113     -2.489115176e-12     -7.047448787e-52    -7.630694502e-102       -0.01768501914         0.0718018773       -0.01631467798      -0.001541475451       -0.01356041301      -7.31274773e-05       -0.02371860795      3.658946383e-07 
                   0                  133            0.6661573         0.4641697569         0.2073324258         0.2658973199       0.008417461202      2.237158775e-12      6.799304057e-25          2.896299665          2.668252698          1.703991994          1.402733621          0.564545783         0.2924908464         0.3840898966        0.09054219469 
                   4                    2          -0.05721359         0.2788260764         0.1245442771         0.1597241211       0.005056356313      1.343857919e-12      4.084331745e-25          1.662707122          1.980216816         0.9978827158         0.8618127662       -0.05382721063         0.3497808077        -0.5671409437         0.1164035538 
                   1                    1          15.03057758      -0.004917849247      -0.002196673952      -0.002817165304     -8.918246961e-05     -2.370255587e-14      -7.20381969e-27        0.01619381302        -0.1768471667       -0.01778466243       -0.01082339168       -0.03984803105         0.0132166429       -0.05858359353       -0.05517909859 
                   0                  134           2.21600992        0.07904325282        0.06604797088         0.1269205698         0.1554131238      0.0004146915552      7.089903461e-08          1.074775047          1.153732719         0.3614720066         0.8610075574         0.2086017123         0.5153010989         0.1636162869         -0.330607556 
                   4                    3          -0.06608221         0.1869753459         0.1562352479         0.3002282497         0.3676268568      0.0009809451687      1.677103491e-07          2.426140601          2.761249469         0.7117627607          2.089922806        -0.1556841139         0.5412666175        -0.1392604832         0.2804207069 
                   1                    1          14.96879731       0.005894813344       0.004925663433       0.009465362846        0.01159025373      3.092647665e-05        5.2874415e-09         0.1090400217        0.04570333532         0.1076857076        0.03107251118         0.2105670513        0.05173934186         0.3495639026         0.1237525074 
                   0                  135           0.02863361         0.6462753492         0.1755752674          0.107254027      4.563807383e-06      2.798176671e-28      1.375250218e-56          1.799660706          1.603086508           1.38605973         0.4730720972         0.6694685814        0.03874771999        -0.1919860946       0.002231582402 
                   4                   17          -1.20921777         0.5709464888         0.1551104844        0.09475266259      4.031857016e-06      2.472025504e-28      1.214953168e-56          1.585664006          1.360877912          1.211269619         0.4284247232         0.4876925178        0.05039415676         0.4810867782       0.004367645467 
                   1                    1          14.96939074       0.009296049535       0.002525481415       0.001542746058      6.564598132e-08      4.024908111e-30      1.978165214e-58        0.04069980066        0.02466347402        0.03672060225       0.004751385363        0.02963785415       0.002452021798         0.0675332918     -7.802852735e-05 
                   0                  136           0.61049167         0.4550337416        0.09814793653        0.03534286183      1.472142233e-08      1.397984012e-39      6.755107951e-79         0.7970515468         0.6325152585         0.6705082767         0.1427549101         0.3818813686       0.004935612445         0.2595013405       4.45529365e-13 
                   4                   18          -2.50367777         0.7868858529         0.1697263646        0.06111810056      2.545762635e-08      2.417521474e-39      1.168154885e-78          1.372276302          1.151205163          1.149078701          0.251419903         0.6268253294       0.007842149226        0.08948657351     -4.494113622e-15 
                   1                    1          15.02958434      -0.004484151759     -0.0009672035323     -0.0003482879214     -1.450729601e-10     -1.377650028e-41     -6.656853422e-81      -0.007996621095        0.01532283401      -0.008009121905      -4.32318234e-05       -0.01493956032     -6.511612625e-05       -0.05953217081     -2.863314226e-14 
                   0                  137           2.17002943         0.1373699101        0.03721243662        0.02260052319      9.136803498e-07      4.473656592e-29      1.660035282e-57         0.3904868877         0.3389689065         0.3054223255         0.1000498237         0.1205118568        0.02881572646        0.08950072523       0.005075325814 
                   4                   19          -2.39647238         0.8524480864         0.2309215341         0.1402474001      5.669837486e-06      2.776124697e-28      1.030133818e-56          2.368458433          2.057119616          1.831798603         0.6178386593         0.9208363183        0.07126775182         0.1791833651        0.01197378421 
                   1                    1          15.08466494       -0.01808115161      -0.004898042866      -0.002974767079     -1.202620932e-07     -5.888397469e-30     -2.185001766e-58       -0.06432617368       -0.03036838831       -0.06053170889      -0.005121484247       -0.08323467065      -0.003877178775        -0.1384459033     -0.0007476888246 
                   0                  138           2.92872851       -0.03955553433       -0.01828089316       -0.02426188933      -0.001045553477     -1.082228773e-12     -1.798758511e-24        -0.2284822411         -0.064347999         -0.128968389        -0.1190696989        -0.4554129821         0.1496896559         -0.541225667         -0.145880645 
                   4                   20          -1.15723536         0.5161846679         0.2385586979         0.3166084216        0.01364407493      1.412267358e-11      2.347311395e-23          3.341953718          3.331592755          1.943407082          1.694893308         0.5153176325         0.5366543597       -0.02781327179         0.1206621431 
                   1                    1          14.95748499        0.01120436413       0.005178182701       0.006872339035      0.0002961598692       3.06548387e-13      5.095101275e-25         0.1053568049        0.05728545057        0.08286394519        0.03156444219          0.106320634      -0.006540613801         0.1354244272        0.03546982997 
                   0                  139           4.29957981        -0.3705098575        -0.1321516362        -0.1286936873     -0.0003448873422     -1.730416949e-18     -6.568657128e-37         -1.603779413         -1.340807025         -1.121668326        -0.6238457693        -0.3872375746        -0.2108129068       -0.06390610564        -0.2328703672 
                   4                   21          -1.29801163         0.5952277311         0.2123029037         0.2067476748      0.0005540649081      2.779931852e-18       1.05526123e-36          2.662757283          2.651850732          1.806415644          1.023144328         0.4511880279         0.3141200634        0.03688038647        0.07922117838 
                   1                    1          15.08638491        -0.0186019854      -0.006634864788      -0.006461253442     -1.731556981e-05     -8.687809558e-20     -3.297889691e-38       -0.06555084068         0.1433158226        -0.1051757943      -0.009053174059       -0.09775404851       -0.03562487218       -0.06430860789        -0.2103000786 
                   0                  140           4.94920672        -0.4714834464        -0.1026283503        -0.0378311101     -1.930702906e-08     -4.459817617e-39     -6.542475884e-78        -0.8405276616        -0.8276524298        -0.7098020903        -0.1528253128        -0.3363591866       -0.02155642322       -0.09828510703       -0.02127313025 
                   4                   22          -2.43581568          0.777619076         0.1692652489        0.06239496445       3.18431415e-08      7.355590701e-39      1.079052529e-77          1.398594755          1.067746086          1.174793728         0.2575635909         0.5183411536        0.03472577851         0.2176003845        0.02359359654 
                   1                    1          15.07329373       -0.01387889985      -0.003021036276      -0.001113621681     -5.683345295e-10     -1.312821532e-40     -1.925886651e-79       -0.02942270117        -0.1798132598       -0.02988556933      -0.002055520286       -0.01950399479       -0.00111262321        0.01972455249      -0.008569888101 
                   0                  141            6.3054977        -0.5598346905       -0.09301489118       -0.01565488433     -9.717482173e-12     -4.461118992e-55    -8.930851987e-110        -0.5347519034        -0.4327335792        -0.4783816472       -0.06219567079        -0.2554403621     -0.0008353715413       -0.06705350661     -0.0001201301155 
                   4                   23          -2.36524826         0.5601523206         0.0930676645        0.01566376635      9.722995524e-12      4.463650071e-55     8.935919032e-110         0.5359256514         0.4379473074         0.4795810586        0.06219520279         0.2606368225      0.0009097998438         0.0133804457       0.000100666818 
                   1                    1          14.91936004        0.01403228749       0.002331423394      0.0003923905418      2.435692284e-13      1.118181944e-56     2.238522992e-111        0.01712501549        0.01161160615        0.01598158747        0.00127064722        0.01401431876      2.991958259e-05        0.01334833961      6.699376147e-07 
                   0                  142           7.16827973        -0.6744189403        -0.1100418357       -0.01745026906     -6.561913916e-12     -3.437771411e-56    -4.578502972e-112        -0.6158099019        -0.4947448985        -0.5528288892       -0.06953802151        -0.3142503074     -0.0009129154198        -0.0977972042     -6.835542556e-07 
                   4                   24          -1.32175918         0.3838419535         0.0626297256       0.009931727838      3.734678411e-12      1.956589318e-56     2.605830619e-112         0.3489878214         0.2528569229         0.3143339529        0.03834620912         0.1891948739      0.0006007548409         0.1212982937      1.242632258e-07 
                   1                    1          15.08835205       -0.01218270741      -0.001987796318     -0.0003152217552     -1.185344487e-13     -6.209992149e-58     -8.27061026e-114       -0.01302753135      0.0009451423506       -0.01231283819     -0.0007907413016       -0.01044437288     -7.893076146e-06       -0.01897503412     -4.235260962e-08 
                   0                  153           8.54863361        -0.1499495475       -0.01632812752     -0.0005283820177     -4.354519775e-19     -4.878954709e-87    -2.344593449e-172       -0.03904493291       -0.02847575163       -0.03711370462      -0.002111952652       -0.02644088396       -2.5642295e-08       -0.01386151636      -2.88330724e-35 
                   4                   17          -1.20921777        0.06212269278       0.006764590268        0.00021890372      1.804036749e-19      2.021305229e-87     9.713431013e-173         0.0161793857         0.0118529032        0.01538715128      0.0008662924396        0.01099869268      8.286903613e-09       0.005588953837      2.074929943e-35 
                   1                    1          14.96939074       0.001011470673      0.0001101398598      3.564151569e-06      2.937300659e-21      3.291053348e-89     1.581523621e-174      0.0002958095702      0.0001838342606      0.0002836516029      1.328975139e-05      0.0002159231964      9.030962062e-11      0.0002371454172      4.520533693e-37 
                   0                   47          -0.09032813         0.6726463493         0.2498073437         0.2573258688       0.001139732607      5.225140823e-17      3.148497071e-34          3.127842743          3.023390121          2.085852425          1.281357242         0.5223915283         0.3822167991        0.06365867576         0.2393314223 
                   4                    1           1.26224159       -0.01624206972      -0.006031978463      -0.006213524695     -2.752057821e-05     -1.261689766e-18     -7.602525308e-36       -0.01868423898         0.2533260419       -0.04639293238       -0.03986834388        0.05252350812       -0.02416471807       -0.06079210292        -0.1429461271 
                   1                    1          15.06576013        -0.0135637115      -0.005037290017      -0.005188898817     -2.298236552e-05     -1.053633945e-18     -6.348849729e-36        -0.1365530311       -0.05668010684       -0.04867427945       -0.02509011859        -0.0156139699       0.004670429507      -0.007243820786         0.1463286535 
                   0                   48          -3.45659661         0.1330959304          0.014304681      0.0004354296015       2.15351948e-19      3.385527244e-88     1.479954347e-174        0.03213458692        0.02420036084        0.03046985681       0.001820869002        0.02121092611       1.06101416e-08       0.006179074613      6.624822623e-42 
                   4                    6           0.01529609        0.02527563902       0.002716536501      8.269044282e-05      4.089650287e-20      6.429299846e-89     2.810513569e-175       0.006122799116       0.004634540007       0.005801074755      0.0003518892338       0.004026426197        1.3005677e-09       0.001628764112     -6.822030555e-43 
                   1                    1          14.98474389      0.0005098601669       5.47979718e-05      1.668031536e-06      8.249642181e-22      1.296918306e-90     5.669367712e-177      0.0001486936172       6.32690534e-05      0.0001443468703      4.767937729e-06      0.0001265621565      6.994252573e-13      0.0001223820384     -1.669534647e-44 
                   0                   49          -2.22260711         0.7558093671         0.1230668823        0.01938227466      6.879719835e-12      2.807716508e-56     2.737629883e-112         0.6709356072         0.5458267351         0.5984460803        0.07982189986         0.3283244899      3.473013769e-05         0.0428048089      3.183065686e-23 
                   4                    7           0.09208119         0.1674868492        0.02727153863       0.004295099074      1.524541304e-12      6.221880963e-57     6.066569472e-113           0.14923252         0.1181060107         0.1328647756         0.0180124241        0.06950349898      1.277803465e-05        0.05090872263     -3.256765955e-23 
                   1                    1          15.07020966       -0.00938001888      -0.001527329151      -0.000240544918     -8.538118836e-14     -3.484533931e-58    -3.397552492e-114      -0.008328941904      -0.006990570263      -0.007412386413      -0.001009848446      -0.003699282947       -4.8656359e-07       0.001344070808     -3.055555915e-25 
                   0                   50           -1.4310607          0.909611697         0.2025309602        0.07904836749       6.63036801e-08      1.348129268e-37      2.994081914e-75          1.684673818          1.397990015          1.396463878         0.3335253665         0.6063752824         0.0392265292         0.2532977257        0.03556641656 
                   4                    8           1.22036314      -0.005804437019      -0.001292395653     -0.0005044254291     -4.230987097e-10     -8.602716363e-40     -1.910591075e-77      -0.008147888448        -0.2437192811      -0.005475226391      -0.005191927174       0.007477903859     -0.0003859124858        0.04494694701      -0.003630105446 
                   1                    1          15.09100495       -0.01795234859       -0.00399720717      -0.001560120493      -1.30858781e-09     -2.660705293e-39      -5.90920306e-77       -0.03997172554       -0.03552000004       -0.03039524822      -0.006902292728       -0.01430369866     -0.0004585478885      -0.005379786408       0.005354044241 
                   0                   51          -0.09144453         0.6639774266         0.1706875557         0.0929554461      1.437919601e-06       1.03665377e-30      1.977195723e-61            1.6475336          1.441992729          1.296811475         0.4001325827         0.6795046463        0.02809441691        -0.0892150227      0.0007437740692 
                   4                    9           3.68615585        -0.5827211479        -0.1497991414       -0.08157973764      -1.26194977e-06      -9.09790078e-31     -1.735230319e-61         -1.452302509         -1.218490306         -1.139979147        -0.3560890953        -0.5297187111       -0.03367034663        -0.4376769912     -0.0009181936723 
                   1                    1          14.93239556        0.01779608928       0.004574810616       0.002491415147      3.853948127e-08      2.778465397e-32      5.299329496e-63        0.06949556072         0.0217802801        0.06875623295       0.001419052803         0.1000949246       0.002227441299         0.1820768028       4.66413825e-05 
                   0                   53          -3.54914012        0.05979893653        0.00620271091      0.0001592483425      1.815313849e-20      1.156623636e-91     6.853401938e-181        0.01273885283       0.009510973269        0.01214665638      0.0006471756066        0.00868653891      2.974729634e-09       0.003020191492       2.95457812e-45 
                   4                   14           2.43223828       -0.01176041562      -0.001219862133     -3.131872911e-05     -3.570104518e-21     -2.274685047e-92    -1.347830913e-181       -0.00250553297      -0.001868500932      -0.002387778315     -0.0001286906562      -0.001704160196     -5.806318652e-10     -0.0006842564814      8.315068811e-46 
                   1                    1          15.07391101     -0.0006209620347     -6.440997467e-05     -1.653661093e-06     -1.885051887e-22     -1.201057089e-93    -7.116685779e-183     -0.0001313202802     -9.964397394e-05     -0.0001249851146     -6.922848082e-06     -8.752364337e-05     -3.089301144e-11     -2.353503075e-05      1.616028503e-47 
                   0                   54          -2.09960254         0.7701934771         0.1286876765        0.02205921695      1.598039263e-11      1.432963248e-54     6.618277199e-109          0.730967586         0.5935163481         0.6530394668        0.08597170496         0.3646924389      0.0004081551638        0.04613125595      5.265638758e-05 
                   4                   15           2.47796988        -0.2040235465       -0.03408924763      -0.005843466362     -4.233191368e-12     -3.795906517e-55    -1.753175567e-109        -0.1935560778        -0.1553951637        -0.1712202471       -0.02461206812       -0.08732118653     -9.030243464e-05       -0.05122812248     -1.297994674e-05 
                   1                    1          15.07427703       -0.01044719855      -0.001745568806     -0.0002992196459     -2.167641505e-13     -1.943726092e-56    -8.977284026e-111      -0.009635809877      -0.008424110316      -0.008326547227      -0.001442954326      -0.003305783627     -9.630460882e-06       0.002164952843     -9.069134287e-07 
                   0                   55          -1.37255975         0.7252341664         0.1298365832        0.02766855178      1.267917605e-10      3.422251171e-50     3.490668755e-100         0.8143778682          0.617791519         0.7213350254         0.1036812307         0.4238377243       0.003239026116         0.2290796643      9.782431332e-07 
                   4                   16           3.67845342        -0.4372663794       -0.07828254003       -0.01668223592     -7.644672109e-11     -2.063382351e-50    -2.104633453e-100        -0.4939552286         -0.423743339        -0.4349785237       -0.06553035944         -0.238836374      -0.001790948713       -0.03137078192     -2.632015254e-06 
                   1                    1          15.02951032      -0.003694829722     -0.0006614747193     -0.0001409621778     -6.459623481e-13     -1.743524496e-52    -1.778381006e-102      -0.001653654832       -0.02978983828     -0.0004206703714        -0.0013620942       0.004496111456     -2.118553452e-05        0.02306181891      2.092395794e-07 
                   0                    1           4.24282775        -0.2392393215        -0.1816788899         -0.336357389        -0.2937419212     -0.0001763643793     -4.674708735e-09         -2.802304301         -3.122142857        -0.9526809544         -2.244172364        0.04645053126        -0.6281324648        0.09593433571        -0.1984668176 
                   4                    5           1.22692905      -0.005321473679      -0.004041139326      -0.007481700671      -0.006533791737     -3.922927035e-06     -1.039809816e-10         0.0211679072       -0.06484164527       -0.08436877325       -0.02157939381       -0.01024981719        -0.0759629221        -0.1020088528        -0.2723513376 