ITEM: TIMESTEP
0
ITEM: NUMBER OF ENTRIES
588
ITEM: BOX BOUNDS pp pp pp
0 4.26
0 2.4768
0 30
ITEM: ENTRIES c_2[1] c_2[2] c_2[3] c_2[4] c_2[5] c_2[6] c_2[7] c_2[8] c_2[9] c_2[10] c_2[11] c_2[12] c_2[13] c_2[14] c_2[15] c_2[16] c_2[17] 
                   0                   94           0.77992661       -0.02467472018      -0.002744416945     -9.791557597e-05     -1.803827315e-19     -4.682537229e-86    -1.067679119e-169      -0.006779410193      -0.005027552618      -0.006417647331     -0.0003958307189      -0.004495811456       4.25066999e-11      -0.002773616929      1.376016048e-56 
                   1                    2          -4.95825027         0.2035318687        0.02263759448      0.0008076663079      1.487904793e-18      3.862437123e-85     8.806856762e-169        0.05602076975        0.04129334133        0.05311370514         0.0031794323        0.03729788224      5.703214395e-09        0.01851390401      8.679132058e-57 
                   1                    1          14.90468635       0.005578119712      0.0006204198527      2.213540013e-05      4.077843488e-20        1.0585633e-86      2.41366139e-170       0.001556326477       0.001149573087       0.001475921095      8.794441454e-05       0.001045289098      1.404024686e-10      0.0006383341088     -8.691383166e-60 
                   0                   77          -3.48007359         0.5318711066        0.08641111135        0.01350908278       4.50643328e-12      1.405918052e-56     9.802346237e-113         0.4699773123         0.3775072655         0.4210451701        0.05386223778         0.2360136405      2.162474941e-05         0.0640643347     -8.491730777e-25 
                   1                    2          -2.48145027         0.5591740329        0.09084691577        0.01420255435      4.737765297e-12      1.478089066e-56     1.030553721e-112          0.494731514         0.3995848234          0.444128976        0.05570461004         0.2537317489      1.912640161e-05        0.03413143724      2.530453776e-24 
                   1                    1          14.90468635         0.0256049155       0.004159934948      0.0006503435111      2.169451243e-13      6.768258791e-58     4.718967508e-114         0.0237653364        0.01763925337         0.0218073096       0.002163526652        0.01612910368      1.119563482e-06       0.009734010816      5.511021266e-26 
                   0                   78          -2.06794814         0.4422347717        0.09407642846        0.03268278164      9.972895396e-09      2.427305263e-40      2.140968528e-80         0.7416965393         0.6744839378         0.6233745994         0.1348528131         0.2829785995        0.01411916151        0.05119075746       0.008826868602 
                   1                    3          -2.55372473         0.7928035596         0.1686527883        0.05859110879      1.787861895e-08      4.351481103e-40      3.838159228e-80          1.331643179          1.071684774          1.120784662         0.2409780636         0.5198388559        0.02542144939         0.2366213075        0.01909067219 
                   1                    1          15.07795783     -0.0008834447857     -0.0001879348606      -6.52898299e-05     -1.992268134e-11     -4.848985911e-43     -4.276975949e-83        -0.0175842983        0.04902058154       -0.01704026827      0.0008987346938        -0.0178371248      0.0003396158721       -0.07339409718       0.006862031859 
                   0                   79          -1.40870693         0.2211299161        0.03620118891       0.005804357809      2.394679426e-12      1.874046692e-56      4.11944237e-112         0.1985266118          0.162503646         0.1783875953        0.02217681305          0.101213759       1.06572036e-05      -0.008549764988      6.107506207e-24 
                   1                    4          -3.65583049         0.7469749082         0.1222872971        0.01960706953         8.089206e-12      6.330513213e-56     1.391544003e-111         0.6719448897         0.5437411228         0.6014974875        0.07757111192         0.3331902574      3.876351086e-05        0.06084473435      7.888510674e-25 
                   1                    1           14.9938754        0.01226150907       0.002007332223      0.0003218478403      1.327834063e-13      1.039146621e-57     2.284203823e-113       0.009291618968       0.007393874708        0.00806954514       0.001350391384        0.00475180266      7.517354022e-07       0.002339918476      4.965337084e-26 
                   0                   68           0.03201991                   -0                   -0                   -0                   -0                   -0                   -0       -0.00105832368      -0.006505232508       0.000555572927      -0.001698304934       0.008211632393      0.0001153555313        0.03767255548     -9.428674024e-07 
                   1                    1          -3.74266792         0.8137120297         0.1388539779        0.02547174737      3.272168883e-11      3.518983774e-53     3.615938187e-106         0.8113818673         0.5565292539         0.7233382818         0.0975742744         0.4105537295       0.001919812073         0.1811790508      2.050804523e-06 
                   1                    1          15.07376276                   -0                   -0                   -0                   -0                   -0                   -0       -0.00551772004      -0.002118059605      -0.006095161987      0.0006246639773      -0.009665478223     -1.800897349e-05       -0.01032304215      2.131504311e-07 
                   0                   69           0.77992661        -0.1750363843       -0.04513215419        -0.0247377867     -4.050104867e-07     -3.745830429e-31     -9.752952689e-62        -0.4375648295        -0.3628289507        -0.3391240971        -0.1124606751       -0.09996219814       -0.01686243098         -0.316681693      -0.001676988843 
                   1                    2          -2.48145027         0.8641468996         0.2228154522         0.1221293605      1.999518887e-06      1.849299941e-30      4.814989673e-61          2.172200315          1.886750903          1.702788031             0.535513           0.82689094        0.04281927248        0.08060613499       0.003372469438 
                   1                    1          14.90468635         0.0395698066        0.01020285365       0.005592376919      9.155917322e-08      8.468055727e-32      2.204812749e-62         0.1046080493        0.08007767826        0.08674752986        0.02084623895        0.05025060127       0.004425686616        0.08628060831      0.0003791106849 
                   0                   70           2.19205206        -0.4511771363       -0.09499500199       -0.03212183877     -7.755423359e-09     -6.778334559e-41     -1.663214974e-81        -0.7438631802         -0.622989803         -0.626940262        -0.1315374647        -0.3439267441      -0.003691153366       -0.06803519127      1.545655307e-12 
                   1                    3          -2.55372473         0.7863434248         0.1655640085        0.05598421259      1.351670037e-08       1.18137609e-40      2.898768696e-81          1.298751349          1.062417091          1.096618318         0.2274602723         0.6202063658       0.007023358986         0.1979937065      1.413603116e-12 
                   1                    1          15.07795783     -0.0008762460638     -0.0001844929405     -6.238488727e-05     -1.506206464e-11     -1.316442811e-43     -3.230184904e-84       -0.01603739986         0.0375962833       -0.01788045018       0.002015404851       -0.04229603912      0.0002531217783        -0.1908236675      1.434567921e-13 
                   0                   71           2.85129327        -0.2796326915       -0.03803946239      -0.003150343762     -5.411101795e-15     -2.544806075e-69    -9.833865041e-138        -0.1486665959        -0.1097909154        -0.1389478381       -0.01066414897        -0.0917590878     -3.847781014e-06       -0.03189881504     -6.704679078e-18 
                   1                    4          -3.65583049         0.4827151335         0.0656655131       0.005438271905       9.34089899e-15      4.392964205e-69     1.697568139e-137         0.2568542822         0.1937341655         0.2401498238        0.01833310652         0.1598056579      9.051851757e-06        0.05785577523       1.26460759e-17 
                   1                    1           14.9938754       0.007923714603       0.001077892009      8.926862143e-05      1.533298059e-16      7.211001314e-71     2.786538999e-139       0.003707746024      -0.004504327436       0.003341514328      0.0004007801823       0.001031812273     -2.883675317e-08      -0.007021882882      1.278631897e-19 
                   0                   73           5.03992681        -0.1608101827       -0.01783920133     -0.0006289151692     -1.050578342e-18     -1.854973054e-85    -2.631657812e-169       -0.04398384615       -0.03193299083       -0.04178725316      -0.002402595306       -0.02991565588     -4.677842791e-09       -0.01591504257     -9.021698676e-57 
                   1                    2          -2.48145027         0.1185670365        0.01315303049      0.0004637057591      7.746024444e-19      1.367691114e-85     1.940348942e-169        0.03241877016         0.0235917711        0.03078701461       0.001784932058        0.02199500042      2.663932788e-09        0.01233321848     -4.778106196e-57 
                   1                    1          14.90468635       0.005429255959       0.000602285182      2.123336578e-05      3.546951211e-20      6.262739921e-87     8.884974581e-171       0.001509704117      0.0009994796745       0.001436718526      7.985472586e-05       0.001059142353      1.326336267e-10      0.0009315323311     -3.967478647e-60 
                   0                   49          -6.32794834       0.008133023125      0.0008232039077      1.872523696e-05      6.929445081e-22      6.225605739e-95     2.879913838e-186       0.001558002252       0.001170426174       0.001489144144      7.519821473e-05       0.001068014843      6.706882042e-11       0.000325513766      9.490523504e-48 
                   1                    3          -0.07692473       0.001646890174      0.0001666940332      3.791752252e-06      1.403172577e-22      1.260649178e-95     5.831659064e-187      0.0003154611299      0.0002370779142      0.0003015225584      1.522198581e-05      0.0002162087389      1.354125277e-11      6.561511312e-05      1.667460898e-48 
                   1                    1          15.07795783     -5.364586737e-06     -5.429898203e-07     -1.235126918e-08     -4.570700047e-25      -4.10644375e-98     -1.89960699e-189     -1.146013179e-06     -7.808619141e-07     -1.108158869e-06     -4.136228865e-08     -8.908778072e-07     -5.656563044e-14     -6.760018017e-07     -6.259430424e-51 
                   0                   50          -5.66870713         0.2109344464         0.0237422262      0.0008941090931      2.561676805e-18      3.821010769e-84     7.523919573e-167        0.06065824977        0.04491346661         0.0574865448       0.003468918639        0.04014037388      8.178419588e-09        0.01919770471     -5.482311597e-56 
                   1                    4          -1.17903049        0.08843177862       0.009953648291       0.000374844691      1.073952785e-18      1.601913695e-84     3.154314534e-167        0.02542382783        0.01873377535        0.02410399087       0.001443161685        0.01677454177      4.782032493e-09       0.007094892673      1.619209323e-54 
                   1                    1           14.9938754       0.002955938065      0.0003327126099      1.252963254e-05       3.58981575e-20      5.354588296e-86     1.054367394e-168      0.0008048706168      0.0007415460541      0.0007566842886       5.26983419e-05      0.0004923350537      1.129582043e-10      4.696033993e-06     -7.682658669e-58 
                   0                   42          -4.22798029         0.7091767466         0.1220831632        0.02302895094       3.74652031e-11      1.123147344e-52     4.151769392e-105         0.7267016902         0.5355719936         0.6464236474        0.08894337761         0.3652408029       0.001846850941         0.1519510033      4.924627005e-06 
                   1                    1          -1.26586792         0.4123213341        0.07098017947        0.01338922606      2.178258467e-11      6.530073264e-53     2.413873696e-105         0.4212957961         0.3739578867         0.3765417535        0.04969108914         0.2179534429        0.00121123784         0.1116104028      4.733185577e-07 
                   1                    1          15.07376276                   -0                   -0                   -0                   -0                   -0                   -0      -0.005613673483      -0.006620048845       -0.00586973221      0.0002749648221      -0.008339952017     -1.861943284e-05       -0.01068168259      4.889719951e-07 
                   0                   43          -3.48007359         0.8268989477         0.2172229555         0.1238505525      2.868661964e-06      1.216896699e-29      2.125044536e-59          2.153947317          1.871007956           1.68132808         0.5405064555         0.7655690917         0.0538824043         0.2142786545       0.006396595794 
                   1                    2          -0.00465027         0.2862007421        0.07518375885         0.0428663262      9.928821233e-07      4.211841596e-30      7.355062247e-60         0.7485063727         0.6701307698         0.5882262154         0.1828012249         0.3260637981       0.007515154801        -0.2603424492      0.0003958388383 
                   1                    1          14.90468635        0.03980791101        0.01045737464       0.005962314724      1.381008411e-07      5.858287236e-31      1.023022027e-60         0.1099816327        0.07881383848        0.09426255967        0.01879045857         0.0774245993       0.005401209905        0.09518694639      0.0007164495391 
                   0                   44          -2.06794814         0.4712471415         0.2071309203         0.2612069461       0.007107443975      9.693651066e-13       1.27988219e-25          2.842285712          2.890161083           1.67518504           1.38319322         0.2835154466         0.4501336593        -0.2227112978        0.08848460398 
                   1                    3          -0.07692473         0.2890038448          0.127028107         0.1601915536       0.004358813995      5.944868799e-13      7.849190823e-26          1.687954629          1.542000563          1.048115505          0.826570586         0.4826538634          0.113264379          0.408052842         0.1377243779 
                   1                    1          15.07795783     -0.0009414022969     -0.0004137818714     -0.0005218086168      -1.41984184e-05     -1.936483975e-15     -2.556798605e-28       -0.08515937215       -0.02780429699        -0.0987579075        0.01740127603        -0.1317115668        0.03976463779        -0.1223625252      -0.004148691728 
                   0                   45          -1.40870693         0.3396635822         0.1287978741         0.1364055368      0.0007744741099      1.060024012e-16      2.505649826e-33          1.635229521          1.501865054          1.068225553         0.6878298024         0.2373611992         0.2057742933        0.09870640956         0.0971763523 
                   1                    4          -1.17903049         0.5634539631         0.2136575024         0.2262775414       0.001284743286      1.758430288e-16      4.156519565e-33          2.722389186          2.670132188          1.786278039          1.131016592         0.4716901762         0.3416832047      -0.006459942575         0.1299630077 
                   1                    1           14.9938754        0.01883412325       0.007141757793       0.007563597706      4.294408233e-05      5.877763745e-18      1.389366424e-34        0.01116711459        -0.0337980493        0.03620345098        0.03510219773        0.05523184125        0.05735824968         0.1093026957         0.3294488878 
                   0                   34           0.03201991                   -0                   -0                   -0                   -0                   -0                   -0        0.01259914272        -0.1001225325       0.008252775736       -0.01229284656         0.3145394092        -0.1375019641         0.4790960327      -0.002347131268 
                   1                    1          -1.26586792         0.5572350607         0.2433932895         0.3048959963       0.007813167168      8.180428237e-13      7.761829956e-26          3.226850725          3.262922929          1.977828637          1.604525524          0.509981732           0.40561071        0.02632949793         0.1501976584 
                   1                    1          15.07376276                   -0                   -0                   -0                   -0                   -0                   -0       -0.08109714438       -0.01995342383       -0.09848903921        0.02537673856        -0.1855876182        0.03650735439        -0.1231564267      0.0007009939421 
                   0                   35           0.77992661        -0.1156929645       -0.09180697471        -0.1730455203        -0.1778221185     -0.0002189017794     -1.423260319e-08         -1.429828878         -1.613906053        -0.4445159692         -1.185869976         0.1237645462        -0.1990913919        0.05607730096        -0.1618815896 
                   1                    2          -0.00465027         0.1880372588         0.1492150532         0.2812531031         0.2890165694      0.0003557838691      2.313243247e-08          2.336214279          2.602492497         0.7534729427          1.901524338       -0.05920027062         0.5935816212        -0.1159028738       -0.01155776588 
                   1                    1          14.90468635        0.02615426645        0.02075445199        0.03911973958        0.04019956688      4.948628888e-05      3.217510221e-09         0.2254261221         0.1282353884         0.2070719551         0.1795594436         0.7143719914           0.34940155         0.7046608835         0.5622952143 
                   0                   36           2.19205206        -0.4893877781        -0.2100058987        -0.2580785543      -0.005566644954     -2.727359908e-13     -1.001813293e-26         -2.888426603         -2.817021094         -1.717373809         -1.343789456        -0.6765371643        -0.3032108575        -0.3549104145        -0.1082107354 
                   1                    3          -0.07692473         0.2917833342         0.1252099543         0.1538718874       0.003318951347      1.626109607e-13      5.973022539e-27          1.565025415          1.589228046          1.025249316         0.8075293682       -0.02466694486         0.3474936268        -0.5050577573         0.1213464431 
                   1                    1          15.07795783     -0.0009504562171     -0.0004078594133     -0.0005012229104     -1.081116559e-05     -5.296896034e-16     -1.945654786e-29       -0.06736505304         0.0102156992        -0.1061174101        0.02634372555        -0.1956204068        0.01820040066        -0.1046060444      -0.004594259837 
                   0                   37           2.85129327        -0.6654814122        -0.1763407341        -0.1023719692      -2.77971228e-06     -2.369813566e-29     -9.899217843e-59         -1.761491325         -1.547254491         -1.370665289        -0.4477280721        -0.7091030749       -0.04276835006        0.08279367791      -0.003623821429 
                   1                    4          -1.17903049         0.5641438282         0.1494880773        0.08678306196      2.356425737e-06      2.008945213e-29      8.391793592e-59          1.492945144          1.269615385          1.161585186         0.3811153661         0.5092953223        0.05345127453         0.4182973709        0.00676141357 
                   1                    1           14.9938754        0.01885718281       0.004996817942       0.002900827737      7.876635121e-08      6.715139873e-31      2.805057469e-60        0.03703604833         0.0328055268        0.02515220374        0.01394620173        -0.0102641296       0.003374565617        0.04133386352      0.0004480434024 
                   0                   38           4.29202011        -0.7091767466        -0.1220831632       -0.02302895094      -3.74652031e-11     -1.123147344e-52    -4.151769392e-105        -0.7253557611        -0.4923102044          -0.64773778       -0.08616058828          -0.38023985      -0.002244785621         -0.199997941     -1.077030145e-05 
                   1                    1          -1.26586792         0.4123213341        0.07098017947        0.01338922606      2.178258467e-11      6.530073264e-53     2.413873696e-105          0.423079463         0.4275302858         0.3761090187        0.05201092589         0.2058955126       0.001167196423        0.04638653817       1.43110205e-05 
                   1                    1          15.07376276                   -0                   -0                   -0                   -0                   -0                   -0      -0.005773100093       -0.01969307888       -0.00628860433      0.0005629254942      -0.009355192498     -9.164266701e-06      -0.006053961863      8.564305954e-07 
                   0                   39           5.03992681         -0.731959682         -0.116636819       -0.01708809661     -3.305506212e-12     -9.773125894e-58    -3.595574705e-115        -0.6158264038        -0.4981685767        -0.5553203119       -0.06654703175        -0.3113255829     -2.183955599e-05       -0.03703374343     -4.089576095e-24 
                   1                    2          -0.00465027         0.1776704895        0.02831156038       0.004147838419       8.02354175e-13      2.372256429e-58     8.727632596e-116         0.1493955632         0.1199829737         0.1340872852        0.01682644025        0.07069141047      8.553091831e-06        0.02836570176     -3.745688153e-24 
                   1                    1          14.90468635        0.02471234345       0.003937879643      0.0005769264658      1.116001425e-13      3.299592172e-59     1.213934035e-116        0.02176917818         0.0164375594         0.0199685119       0.001987253585        0.01440850724      8.379537705e-07       0.006528163114      1.380718249e-25 
                   0                   15          -6.32794834        0.02217551762       0.002259383056      5.311168691e-05      2.696961055e-21      8.405861736e-94     1.563984406e-184       0.004360987338       0.003252939821       0.004171284784      0.0002072679729       0.003047184057      2.725089597e-10       0.001043256294      5.855229169e-47 
                   1                    3           2.39987527       -0.00414552866     -0.0004223728786     -9.928788317e-06     -5.041744478e-22     -1.571405968e-94    -2.923738824e-185     -0.0008151565028      -0.000608160706     -0.0007796484915     -3.879616908e-05     -0.0005687432318     -4.896776263e-11     -0.0001953292089      1.368576164e-48 
                   1                    1          15.07795783     -1.462709325e-05     -1.490301477e-06     -3.503276048e-08     -1.778930329e-24     -5.544552584e-97    -1.031612707e-187      -3.76998118e-06      -2.14277452e-06     -3.702979277e-06      -7.34643422e-08     -3.462770302e-06      -1.56621931e-13     -4.791440994e-06     -3.862138722e-50 
                   0                   16          -5.66870713         0.5183005932        0.06869473382       0.005142253395      3.867859574e-15      5.496640397e-71     2.707874317e-141         0.2551185768         0.1892509257         0.2392474519        0.01739632374         0.1594387586      1.950230319e-06        0.06409253741      3.254299726e-33 
                   1                    4           1.29776951      -0.007895114284      -0.001046405853     -7.833037192e-05     -5.891792093e-17     -8.372864064e-73    -4.124822059e-143      -0.003853563722     -0.0001315390491      -0.003585919915     -0.0002918987336      -0.001539993371     -8.103996438e-08       0.002001483803      3.777065109e-33 
                   1                    1           14.9938754       0.007263225513       0.000962656323      7.206116787e-05      5.420240051e-17       7.70273839e-73     3.794690202e-143       0.003185324086     -0.0002186412814       0.002923556318      0.0002865795512       0.001398336301      2.762038335e-08      -0.001631758861      4.560425572e-35 
                   0                    8          -4.22798029         0.9092325462         0.1968793749        0.07160755061      3.252824998e-08      4.514180833e-39      3.503902196e-78          1.599664212          1.310889513          1.342054181         0.2901477463         0.7454238022       0.008866831407         0.2621643952       1.23271517e-13 
                   1                    1           1.21093208                   -0                   -0                   -0                   -0                   -0                   -0      1.412946233e-05        -0.0507490671       0.000869937855     -0.0008876974231        0.01998036826      0.0001814813914         0.1274617086      2.809297938e-13 
                   1                    1          15.07376276                   -0                   -0                   -0                   -0                   -0                   -0       -0.01514322977        0.03681160428        -0.0159056101      0.0008713132548       -0.03201805622      0.0004721198281        -0.1290589949       9.07600436e-14 
                   0                    9          -3.48007359         0.8254751891         0.2156436642         0.1215201142      2.539145669e-06      6.852043262e-30      6.799577869e-60          2.127009461          1.824407697           1.66726833         0.5260021533         0.8187419247         0.0553695146         0.2894386625       0.004024061147 
                   1                    2           2.47214973        -0.2964339868       -0.07743916708       -0.04363873366     -9.118251931e-07     -2.460617264e-30      -2.44177657e-60         -0.766553772        -0.6776801987        -0.6028405468        -0.1865457761        -0.3533453881      -0.007733990964         0.1594547639     -0.0003881289042 
                   1                    1          14.90468635        0.03973936956        0.01038134565       0.005850124619      1.222375299e-07      3.298656132e-31       3.27339866e-61         0.1085904225          0.071514315        0.09337317947        0.01822128643         0.0800549814       0.005734388532         0.1343356536      0.0003995678048 
                   0                   10          -2.06794814         0.4665362259         0.2099988945         0.2714510859       0.009225860929      3.353448599e-12      1.507223576e-24          2.804400682          2.820409345          1.690751221          1.446469924         0.2693451167         0.4723684566        -0.2774463104         0.1594309978 
                   1                    3           2.39987527        -0.2641397657         -0.118895502        -0.1536880144      -0.005223424482     -1.898628827e-12     -8.533478435e-25          -1.75626607         -1.678885427         -0.973302378        -0.8019535923        -0.6499073202       -0.08833044428        -0.5572289408       -0.03445713882 
                   1                    1          15.07795783      -0.000931991382     -0.0004195111742     -0.0005422731583     -1.843034346e-05       -6.6991265e-15     -3.010954576e-27       -0.07389015129       0.009935681302        -0.1024423643        0.01872726521          -0.15884549        0.04437112336        -0.1898675756      -0.004691763508 
                   0                   11          -1.40870693         0.2239402841          0.176626226         0.3321218199         0.3339360138      0.0003734062485      2.153010062e-08          2.740147606          3.061843587         0.8910838295          2.242345218       -0.02430126371          0.669515304       -0.07229489063         0.1320568333 
                   1                    4           1.29776951       -0.01349763064       -0.01064585396       -0.02001809399       -0.02012744152     -2.250644471e-05     -1.297691244e-09       -0.09339660164        -0.1536637468       -0.04918091107        -0.1396014942         0.1796044992        0.03584693431         0.0898002163        -0.4623301796 
                   1                    1           14.9938754        0.01241734213       0.009793808588        0.01841593747        0.01851653333        2.0705132e-05      1.193829983e-09        -0.0103046952       -0.04489989039       0.004169186441         0.1177013649         0.2743641266         0.2200477835         0.3873330376         0.4404763566 
                   0                    1           0.77992661        -0.1182764036       -0.09125662587        -0.1700764185        -0.1577482567     -0.0001235462822     -4.564762624e-09         -1.429615384         -1.591891554        -0.4679714339         -1.143798502        0.08390584615        -0.2959536409         0.1477642141       -0.01351466721 
                   1                    2           2.47214973        -0.1994530705        -0.1538888036        -0.2868049997        -0.2660156483     -0.0002083398259     -7.697697037e-09         -2.394690655         -2.660441458        -0.8117613371         -1.910430862         0.0516183202        -0.5371345208        0.06782861473       -0.08982220471 