ITEM: TIMESTEP
0
ITEM: NUMBER OF ENTRIES
3684
ITEM: BOX BOUNDS pp pp pp
0 8.52
0 7.37854
0 30
ITEM: ENTRIES c_2[1] c_2[2] c_2[3] c_2[4] c_2[5] c_2[6] c_2[7] c_2[8] c_2[9] c_2[10] c_2[11] c_2[12] c_2[13] c_2[14] c_2[15] c_2[16] c_2[17] 
                   0                  169          -1.36484501         0.1943322231        0.03008438002       0.003992886282      3.380020807e-13      2.821618143e-60     1.208481188e-119         0.1488753758         0.1198067736         0.1350656598        0.01518882909        0.08000338132      1.250239904e-06       0.005936432106      3.621026304e-25 
                   1                   16           -3.7302072         0.6971334082         0.1079225362        0.01432379241      1.212524298e-12      1.012206952e-59     4.335218297e-119         0.5312489543         0.4287210695          0.480166681        0.05614737254         0.2693881374      1.187159376e-05        0.03785012463      1.942026011e-25 
                   1                    1          15.02926967       0.005942743739       0.000919990304      0.0001221037848      1.033621556e-14      8.628601726e-62     3.695575494e-121       0.002323590333       0.002482398695       0.001699407414      0.0006862233791     -0.0007895638391      4.234021376e-08      -0.001786313546      1.506487832e-26 
                   0                  123           0.01200053       0.004687128299      0.0007660675801      0.0001221616317      4.814431056e-14      3.090362071e-58     5.303994562e-114        0.00489921616      -0.005423409301       0.005774754393     -0.0008968648894        0.01380202858      8.705251114e-05        0.03800019511     -1.362703929e-06 
                   1                    9          -3.76154039         0.7775291689         0.1270799199        0.02026490975      7.986469195e-12      5.126479369e-56     8.798586727e-112         0.6873471412         0.5340412136         0.6175106023        0.07727797429         0.3631491572       0.001371862028         0.1558858654      4.439477482e-06 
                   1                    1          14.99754345        0.01144274295        0.00187021004      0.0002982346676      1.175352871e-13      7.544538264e-58     1.294870601e-113       0.008094849395        0.03361482943       0.006805456652       0.001419646576     -0.0001222605667      1.047952879e-05       -0.03122771911      2.741091031e-07 
                   0                  124           0.69984316       -0.02165444655      -0.002408182861     -8.586935539e-05     -1.574377666e-19     -4.010759185e-86    -8.935655569e-170      -0.005848110369       -0.00432805893      -0.005540272869       -0.00033685971      -0.003904418124     -6.092943764e-09      -0.002524789018     -1.497287064e-33 
                   1                   10          -4.86281565         0.2036780439         0.0226509587      0.0008076725626      1.480832874e-18      3.772451923e-85      8.40472576e-169        0.05548301003        0.04053656778        0.05271181168       0.003031191865        0.03769690461      3.130444375e-08        0.01911245761       1.18560438e-32 
                   1                    1          14.99225865       0.002637608832      0.0002933274868      1.045927309e-05      1.917662696e-20      4.885284796e-87     1.088402975e-170      0.0006759240979      0.0006691943762      0.0006338622658      4.594599871e-05      0.0003685823817      2.304702986e-10     -0.0003712582848      1.422669746e-34 
                   0                  172          -5.72819447         0.1174238618        0.01257910458       0.000377043098      1.637828651e-19      1.569550255e-88     3.758739456e-175        0.02786929445        0.02035645853         0.0265564266       0.001435301319        0.01913404217      2.158770919e-09       0.009569758122      1.150337802e-57 
                   1                   20           -1.2715927        0.05271005155       0.005646597212       0.000169249766      7.352000804e-20      7.045507919e-89     1.687249486e-175        0.01252966683       0.009127408406        0.01194034734      0.0006441916319       0.008590310381      1.154908243e-09       0.004113598902      8.985924851e-57 
                   1                    1          15.08665655     -0.0002919091983     -3.127095529e-05     -9.373081993e-07     -4.071551056e-22     -3.901814754e-91    -9.344017512e-178     -0.0001012773329     -2.601167965e-05     -0.0001002966614     -1.088260223e-06     -0.0001050455434      8.713765547e-12     -0.0002269596914      4.907492209e-58 
                   0                  173          -4.32227191         0.6773967868         0.1116109439        0.01827777575      9.010050186e-12       1.52406361e-55     8.770484976e-111         0.6125781698          0.451918729         0.5497982016        0.06948560945          0.322807219       0.001374616118         0.1303719983      1.906900253e-06 
                   1                   21          -1.23022826           0.39559689        0.06518032441        0.01067414459       5.26183162e-12       8.90046773e-56      5.12192654e-111         0.3591286696          0.296930409          0.323723996         0.0392671953          0.197662737      0.0008897260282         0.1080460541      2.016068779e-07 
                   1                    1          14.91468928         0.0244615513       0.004030395308      0.0006600308091      3.253629323e-13      5.503563185e-57     3.167119661e-112        0.02290098524        0.06870436048        0.02095576641       0.002156081255        0.01402180815      4.019767496e-05      0.0001906256262      1.852771885e-07 
                   0                  174          -3.62564246         0.8419389328         0.2065178327         0.1014414845      6.340580145e-07       8.57379926e-33      1.137504551e-65          1.915765233          1.635798562          1.526087766         0.4444970474         0.7534799491         0.0409699936         0.2430724642       0.004328545223 
                   1                    6          -0.03030508         0.3096582253         0.0759555629        0.03730934495      2.332013307e-07      3.153372958e-33      4.183648324e-66         0.7180899474         0.6307261472         0.5756113714         0.1618882971          0.329849926       0.005754749798        -0.1659560363      0.0009556283847 
                   1                    1          15.04014468       0.007382705645       0.001810891871      0.0008895094303      5.559861292e-09      7.518103004e-35      9.974430379e-68     -0.0006257065058        0.01496427835      -0.005150069745       0.005250848392       -0.02950743763       0.001270214433       -0.08370093019      0.0001632509693 
                   0                  175          -3.63886361         0.5015378962        0.07714316818        0.01001203594      7.031673451e-13       2.62469613e-60     4.116062827e-120           0.37523394         0.2997164216         0.3396145808        0.03915024839         0.1939567114      1.290319695e-05        0.04992844781     -1.351434979e-25 
                   1                   22          -2.43910735         0.5119557802        0.07874557665        0.01022000472      7.177734514e-13      2.679215998e-60     4.201561182e-120         0.3843094687         0.3077813492         0.3487337448        0.03911343941         0.2057805103      1.009420383e-05        0.02937979593      7.961555419e-25 
                   1                    1           15.0389772        0.00454108759      0.0006984793897      9.065223682e-05      6.366706342e-15      2.376485429e-62     3.726817448e-122       0.001162608106       0.001275235646      0.0007572399987      0.0004473293589     -0.0004615586548      1.052208964e-07     -0.0009122232773      1.304838138e-26 
                   0                  176          -2.22659801         0.4702294684        0.09805241569        0.03231603623      6.248878022e-09      2.068779345e-41      1.509537219e-82         0.7432015885         0.5330970372         0.6288769379         0.1335228416         0.2751204801        0.01677839746         0.1123984808        0.01739242525 
                   1                   23          -2.41363011         0.7734466833          0.161279377        0.05315432723       1.02783307e-08      3.402786576e-41      2.482929364e-82          1.228290708          1.037524287          1.037688647         0.2193631006         0.4764694477        0.02745364093         0.1926889879        0.02166408922 
                   1                    1          15.08303643      -0.002222608195     -0.0004634590499     -0.0001527464606     -2.953623376e-11     -9.778387437e-44     -7.135047925e-85       -0.01972070625        -0.3822513751       -0.01865463142      0.0009336824323       -0.01836480918      0.0001555838597         0.0137325254       0.004529199654 
                   0                  177          -1.45071414         0.3552057958         0.1295717575         0.1302352794      0.0004630815352      8.070128631e-18      1.451932015e-35          1.539726478          1.672828499          1.061123718         0.6668771524         0.2220619481         0.2302658612     -7.415922754e-06          0.252919143 
                   1                   24          -1.14655798          0.586422626         0.2139148944         0.2150103277      0.0007645187469      1.332327929e-17      2.397049246e-35          2.692516009          2.499451738          1.774095418           1.09743898         0.4840875317         0.3469585635        0.05794848696         0.1503561334 
                   1                    1          15.09993914      -0.006571718987      -0.002397227717      -0.002409503642     -8.567545218e-06     -1.493067348e-19      -2.68624254e-37        -0.1753928468         0.4953636627        -0.1025241536       0.005082011217        -0.1157944992        0.01252969271       -0.03176596819         0.1577196194 
                   0                  132           0.68994973        -0.1028114701       -0.07888759806        -0.1466879554         -0.133259282     -9.522910986e-05     -3.137817159e-09         -1.271704019         -1.437332881         -0.373484816         -1.024315689        0.08140651615        -0.5120006076        -0.0395720635         0.3649467987 
                   1                    2           -0.0141458         0.2117143878         0.1624491851         0.3020669838         0.2744140054      0.0001961004223      6.461545956e-09          2.558535943          2.850342071         0.8674791319          2.092039271        0.01589918033         0.5234160877       -0.09973085283         0.3788479547 
                   1                    1          14.99743571        0.01189204447       0.009124807025        0.01696716998          0.015413896      1.101500454e-05      3.629464802e-10        -0.0157083302         -0.048308992       0.001961530385         0.1095815503         0.1488768539         0.2160436079         0.3429298268         0.3974782937 
                   0                  133           2.79098579        -0.2550488865       -0.03400354569      -0.002604784224      -2.36491952e-15     -7.450235554e-71    -9.899668787e-141        -0.1270852748       -0.09107656536        -0.1191791299      -0.008676574469       -0.08085276691     -6.784494502e-06       -0.03599710053     -1.258883744e-18 
                   1                   12          -3.65454023         0.4615330341        0.06153235886       0.004713582492      4.279526551e-15      1.348184604e-70     1.791430747e-140         0.2304141981         0.1733672768         0.2161144323        0.01568852036         0.1457742382      9.392272864e-06        0.05537668292      2.950367434e-18 
                   1                    1          14.91195983        0.01488061829       0.001983909009      0.0001519740011      1.379792915e-16      4.346778884e-72     5.775880632e-142       0.007651826345       0.002398517412       0.007196893585      0.0004988442984       0.004986823405       2.23187457e-07       0.002748473571      1.123442689e-19 
                   0                  134           0.04027069      0.0005432722469      0.0002219661897      0.0002579692646      3.370186619e-06      1.812446304e-17      4.209229693e-32        0.01973698016        -0.1114924753        0.01643837136       -0.00849205449          0.375828119        -0.1239730785         0.4983246204         0.0141379928 
                   1                   17          -1.29898764         0.6037402596         0.2466717668         0.2866821039       0.003745299628      2.014177621e-14      4.677730993e-29          3.286795542          3.208220043          2.014245694          1.530158389         0.5910573519         0.4180163407        0.03141373738         0.1223596189 
                   1                    1          14.91926541         0.0352960795        0.01442101327        0.01676011194      0.0002189590496      1.177535742e-15      2.734711864e-30         0.1583517006         0.1140937189         0.1451759895        0.06681432963         0.1331892843        0.07097840097         0.1302700968         0.1326340161 
                   0                  135           0.71002386        -0.1531192556       -0.03752435882       -0.01839428869     -1.129297286e-07     -1.411533306e-33     -1.697415753e-66        -0.3369934213        -0.2756563723        -0.2658551195        -0.0818078397       -0.07496784692       -0.01666504087        -0.2183369592      -0.002106480869 
                   1                   18          -2.53241468         0.8835864456         0.2165371997         0.1061456582      6.516696881e-07      8.145361549e-33      9.795068204e-66           1.99583666          1.709145168          1.589358172         0.4643180051         0.8119158116        0.04386207416         0.1711465951       0.005048889117 
                   1                    1           14.9329344        0.03197671685       0.007836413468       0.003841378138        2.3583722e-08      2.947780844e-34      3.544804518e-67        0.07266394479        0.06730988177        0.06021262966         0.0145359413        0.02729445729       0.002923269711       -0.03781916001      0.0007108930141 
                   0                  136           2.12178468        -0.4313172592       -0.09005705442       -0.02978516999     -5.936868201e-09     -2.244215077e-41      -1.93261331e-82        -0.6936579283        -0.5333321496        -0.5841725557        -0.1232537102         -0.336245805      -0.003950026125        -0.1920453365      -2.31653519e-07 
                   1                   19          -2.51844236         0.7960395045         0.1662093771        0.05497153534      1.095708906e-08      4.141925276e-41      3.566832786e-82          1.285846539           1.06193796           1.08379794         0.2274519368         0.6157081165       0.006357324494          0.188195633       6.08291306e-07 
                   1                    1          15.07985229      -0.001564506505     -0.0003266617424     -0.0001080390158     -2.153465626e-11     -8.140386251e-44      -7.01012081e-85       -0.01581721418        0.04035171083       -0.01695500895       0.001239634515       -0.03176863914      0.0001582757356         -0.108657447     -6.860109201e-09 
                   0                  137           2.79180553        -0.6429034374        -0.1653922871       -0.09021442632     -1.415093364e-06     -1.084519878e-30     -2.232704355e-61         -1.605835213          -1.40763491         -1.253884106        -0.4014144178         -0.649845951       -0.02663802723         0.1132317817     -0.0008743363701 
                   1                   20           -1.2715927         0.6057834035         0.1558428479        0.08500561521      1.333388537e-06      1.021901742e-30       2.10379221e-61          1.518836549          1.300234899          1.181701902         0.3846853603         0.5318496433        0.03675344904          0.350087914       0.001298686271 
                   1                    1          15.08665655      -0.003354839209     -0.0008630604494     -0.0004707626014     -7.384329316e-09     -5.659309933e-33     -1.165083849e-63       -0.03531036136       -0.01617659916       -0.03603241555      0.0008394457686       -0.05129416912      0.0006770007712       -0.05633735977      4.139883367e-05 
                   0                  138           4.19772809        -0.7092528255           -0.1242038       -0.02472347399     -6.345976405e-11     -1.378565785e-51    -6.044616261e-103        -0.7563284602        -0.5670636348        -0.6697435155        -0.0964427097        -0.3857011018      -0.003152002086        -0.1918165697     -5.222116053e-07 
                   1                   21          -1.23022826         0.4351142154        0.07619686107        0.01516741929      3.893145639e-11      8.457260208e-52     3.708266456e-103         0.4649821091         0.3975739847         0.4096199994        0.06150991067         0.2234764454       0.001884240384        0.05798410527      1.698894404e-06 
                   1                    1          14.91468928         0.0269050869       0.004711597774      0.0009378703789      2.407308656e-12      5.229507858e-53     2.292989466e-104        0.03052671978       -0.04528015379        0.02797082681       0.002860133698        0.02213028504      0.0001172522111        0.03411417214      2.039139746e-07 
                   0                  139           4.89435754        -0.7621386084        -0.1264788759       -0.02120582612     -1.274572793e-11     -5.088857608e-55     -8.55771458e-110        -0.7108531971        -0.5773695149         -0.633965581       -0.08498080407        -0.3513246547      -0.001257954674       -0.05154582826     -0.0001360428023 
                   1                    6          -0.03030508         0.2119338906        0.03517097803        0.00589687123      3.544305039e-12      1.415098749e-55     2.379711152e-110         0.1981865972         0.1595968376         0.1755519983        0.02498882193        0.09144551945      0.0002928080685        0.04333609786      5.242836153e-05 
                   1                    1          15.04014468       0.005052814371       0.000838527631      0.0001405900472      8.450142343e-14      3.373802687e-57     5.673579941e-112       0.001864058121       0.001837193429       0.001432952067      0.0004788313006      0.0002932511057     -1.631710555e-06      -0.001383173663       3.48848904e-06 
                   0                  140           4.88113639        -0.2099090474       -0.02407997333     -0.0009872130165     -5.643041477e-18     -1.334898115e-82    -8.006376247e-164       -0.06458658683       -0.04768120091       -0.06121271947      -0.003690536543        -0.0428822229     -5.132196321e-08       -0.02127134543     -1.577481022e-29 
                   1                   22          -2.43910735         0.1630316134         0.0187023711      0.0007667460398      4.382822788e-18      1.036785198e-82     6.218371494e-164         0.0501039383         0.0368527688        0.04746020811       0.002892286686        0.03321570797      4.770007724e-08        0.01753380409       1.47346524e-29 
                   1                    1           15.0389772       0.001446103091      0.0001658914863       6.80109701e-06      3.887597902e-20      9.196365348e-85     5.515743882e-166      0.0003474811887      0.0002919294299      0.0003229137186      2.689485705e-05      0.0001941057594     -1.587268736e-10     -3.926432721e-05     -1.149136926e-33 
                   0                   46          -5.63882436         0.5285605833        0.07051993805       0.005417446313      5.034087185e-15       1.74963707e-70     2.627790228e-140         0.2653566187         0.1959588743         0.2485681382        0.01841740374         0.1657101861       1.51255495e-05        0.06745069242      2.796977247e-17 
                   1                    4           1.21668459       0.009505099579       0.001268159327      9.742188181e-05      9.052793852e-17      3.146370559e-72     4.725552487e-142       0.005096455149       0.006799240072       0.004755426023      0.0003745561705       0.003323524946      1.231987488e-07     -0.0006640214958        1.4704919e-18 
                   1                    1          15.06634401      0.0005550887868       7.40593001e-05      5.689345359e-06      5.286745619e-18       1.83745052e-73     2.759677765e-143     -0.0006409269415        0.01017312086     -0.0007592222739      0.0001286770526      -0.001601738349     -1.253551938e-07      -0.006121329125     -3.384508144e-20 
                   0                   48          -4.29443879         0.7170911292         0.1228884799        0.02285066512      3.292275173e-11       5.82496331e-53       1.1145556e-105         0.7351019804         0.5842586329         0.6531094314        0.09083580325         0.3701654015       0.001661558675         0.1400250491      3.249254202e-07 
                   1                   13           3.68536458        -0.3912792753       -0.06705384213       -0.01246841764     -1.796423064e-11     -3.178379051e-53    -6.081549327e-106         -0.399667559         -0.287589393        -0.3567035756       -0.04772824657        -0.2144900366      -0.001015288325        -0.1437663897      3.017531542e-08 
                   1                    1          15.01468784       0.009527359163       0.001632711154      0.0003035966906      4.374156471e-13      7.739116453e-55     1.480812002e-107        0.00684952555        0.04806598086       0.005662828699       0.001313884195      0.0008857636808      1.657225532e-05       -0.01920683039      2.199288186e-08 
                   0                   49          -4.18692267         0.9092451497         0.1988555629        0.07419152476      4.204325285e-08       1.53579616e-38      3.994086711e-77          1.643691788          1.322604652          1.367511299         0.3112017864         0.7598146808       0.009395904661         0.3079528312      4.939883341e-06 
                   1                    5           1.21961383        0.02133411803       0.004665857222       0.001740796469      9.864839189e-10      3.603522829e-40      9.371544883e-79        0.04504547512           0.07016643        0.03798450458        0.00779252349        0.02143219515     -0.0006911586294       -0.01767153506      3.260895806e-07 
                   1                    1          14.98947423        0.01780770871       0.003894617353       0.001453052636      8.234236939e-10       3.00788084e-40      7.822481398e-79        0.02636962161         0.1501183309        0.02121231787       0.005840804615       0.003275814447      0.0004154696776       -0.06290648786      9.839608661e-08 
                   0                   50          -2.08057194         0.4774798484         0.2087742267         0.2618194157       0.006776583424      7.414105856e-13      7.432152044e-26          2.865915516          2.923426219          1.680113838          1.425326771         0.2667947299         0.4608983643        -0.2287232978        0.08687749983 
                   1                    7           0.05282215         0.2847142117         0.1244890011         0.1561190672       0.004040777038      4.420922288e-13      4.431682964e-26          1.739214935          1.567720403          1.053791235          0.830609843         0.6061081944        0.09078521527         0.4181107689          0.128540542 
                   1                    1          14.95944188        0.02538271842        0.01109838966        0.01391825965      0.0003602416091      3.941321543e-14      3.950914855e-27        0.09293793989       0.003774049896        0.08966033169        0.06091104222          0.107851135        0.06765098324          0.131602297         0.1229634534 
                   0                   51          -1.35763415         0.2122195881         0.1727857192          0.328899165         0.3695236384      0.0006744204031      7.173025256e-08          2.738892635           3.10703206         0.8582534828          2.290046549       -0.06087802786         0.6837651822        -0.0794784269         0.1911226528 
                   1                    8           1.27537243       0.006589954994       0.005365433622        0.01021315098        0.01147464364      2.094245938e-05      2.227405775e-09        0.04274627924         0.0359639513         0.1428968465        0.01775547217        0.01020993589       -0.07928095066       -0.02694877568         0.4257110873 
                   1                    1          15.00489625        0.01021713304       0.008318622686        0.01583457283        0.01779040383      3.246940135e-05      3.453392496e-09       -0.06453423801        -0.3641531258       -0.02631908786         0.1161090129          0.132615295         0.1866178734          0.292004284         0.3536568346 
                   0                   52          -3.48413718         0.8299283809          0.217654058         0.1236619609      2.777188025e-06      1.028705055e-29       1.51643611e-59          2.188991857          1.887014409          1.704736399         0.5527649018         0.7870390199        0.05030478738         0.3114440727       0.004968125731 
                   1                   14           2.51752708        -0.2820752662       -0.07397605354       -0.04203010927     -9.439080159e-07     -3.496352926e-30     -5.154048581e-60        -0.7357592483        -0.6702223149        -0.5736230608        -0.1848905442        -0.3362443886      -0.007633790374          0.306177076      0.0006156017824 
                   1                    1          15.07812326      -0.001367849921     -0.0003587274431     -0.0002038139764     -4.577234022e-09     -1.695464526e-32     -2.499320497e-62       -0.03210788333      -0.001802214745       -0.03467396938       0.002925946559       -0.06071931256      0.0008181339526        -0.1274799821      0.0001149180319 
                   0                   53          -2.20932241         0.5133986286         0.2167191747         0.2615149704       0.004787906684      1.139104978e-13       1.69647156e-27          2.980631685          2.957966773          1.848531477          1.372256274         0.3547333805         0.3737833899        -0.2277484097         0.1518800839 
                   1                   15           2.51180232        -0.2719680013         -0.114804905        -0.1385350483      -0.002536347662      -6.03429941e-14     -8.986895442e-28         -1.582061452         -1.435657856        -0.9431675688         -0.724807498        -0.5661985566       -0.07232370796        -0.5141534567        0.02888172288 
                   1                    1           14.9699468        0.02333687197       0.009851112476         0.0118873348      0.0002176374441      5.177876518e-15      7.711422937e-29        0.09274354802       0.001329564652        0.07509743152          0.051359326        0.08178717415        0.04285796186         0.2141917107         0.0788603771 
                   0                   54          -1.36484501         0.3291155093         0.1286435562         0.1416599901       0.001140764334      7.278348585e-16      1.177784194e-31          1.672152843          1.789217623          1.143085153         0.7065401099         0.3140904038         0.2415266036       -0.01774561698         0.3491068001 
                   1                   16            3.6483288        -0.5447118092         -0.212915108        -0.2344583204       -0.00188805385     -1.204623396e-15     -1.949324602e-31         -2.834878925         -2.643890631         -1.831232788         -1.188676107        -0.4202957976        -0.3615977806       -0.06124670761       -0.04126736979 
                   1                    1          15.02926967        0.01006446127        0.00393396255       0.004332009413      3.488495114e-05      2.225743101e-17      3.601703071e-33       -0.03703525736        -0.1985593036        -0.0160584722        0.02767671416       -0.02576109046        0.03387708591        0.07915221508         0.2066984317 
                   0                    1           2.07221368        -0.4492200363        -0.2039375052        -0.2659053804       -0.00976889118     -5.004108631e-12     -3.453120717e-24          -2.86866992         -2.809614034         -1.627598554         -1.461194341        -0.5979252872        -0.2899970922        -0.2921344012       -0.04859151551 
                   1                    3           0.04711815         0.2814804963         0.1277868873         0.1666158505       0.006121170284      3.135565796e-12      2.163719457e-24          1.787279377          1.839958128          1.049191769         0.9279366773        -0.0497051846         0.3579559177        -0.4238344071         0.1550959068 
                   1                    1          15.03785675       0.007625867552       0.003462001419       0.004513955407      0.0001658347007      8.494872568e-14      5.861947175e-26       -0.03233832274         0.1361501767       -0.03066081443        0.02960459417       -0.02351155944        0.03798513212        0.01829072087        0.08076605517 
                   0                    2           2.88117564        -0.6725679575        -0.2497691157        -0.2572737989      -0.001138998935     -5.211632904e-17     -3.132735681e-34         -3.182736353         -3.074869155         -2.111897645         -1.312908644        -0.5375498455        -0.4039943155       -0.05376697728        -0.2352555596 
                   1                    4           1.21668459        0.02420810932       0.008990077494       0.009260197691      4.099661664e-05      1.875851766e-18      1.127582826e-35        0.07676369153       -0.01633123952         0.1116847311        0.04054374399        0.01429286268        0.03664064896        0.01805705224         0.2180761597 