ITEM: TIMESTEP
0
ITEM: NUMBER OF ATOMS
4
ITEM: BOX BOUNDS pp pp pp
0.0000000000000000e+00 4.2600002000000003e+00
0.0000000000000000e+00 2.4767999999999999e+00
0.0000000000000000e+00 3.0000000000000000e+01
ITEM: ATOMS id type c_1[1] c_1[2] c_1[3] c_1[4] c_1[5] c_1[6] c_1[7] c_1[8] c_1[9] c_1[10] c_1[11] c_1[12] c_1[13] c_1[14] 
1 1          13.95403394          12.59430368          6.121790845         0.3919829596      0.0002474355988      3.492421639e-08          48.59541435          43.43044681          36.03473662          14.76709672          15.07039325          2.606741821          3.032633492         0.7366105235 
2 1          13.95467071          12.59542917           6.08925548         0.3303184933      0.0001079831154      8.665980899e-09          48.61391105          43.28602662          36.24749874          14.47965763          15.39641989          2.391466869          3.191926988         0.6091314966 
3 1          13.96103677          12.60207128          6.098133616         0.3321788605      8.079819361e-05      3.382581023e-09          48.62210711          43.32481563          36.24487006           14.5340971           15.4163394          2.453483444          3.242200686         0.7258098452 
4 1           13.9563332          12.59654692          6.125038264          0.393200272      0.0002202506757      2.964081651e-08           48.5799791          43.44727974           36.0299317          14.78891123          15.10754207          2.629241495           3.09852971         0.8422260006 
