ITEM: TIMESTEP
0
ITEM: NUMBER OF ENTRIES
3684
ITEM: BOX BOUNDS pp pp pp
0 8.52
0 7.37854
0 30
ITEM: ENTRIES c_2[1] c_2[2] c_2[3] c_2[4] c_2[5] c_2[6] c_2[7] c_2[8] c_2[9] c_2[10] c_2[11] c_2[12] c_2[13] c_2[14] c_2[15] c_2[16] c_2[17] 
                   0                  123           0.02450884      0.0001122519134      1.861198457e-05      3.111514548e-06       1.82506401e-15      6.555346527e-59     9.659895197e-114      -0.001819038231      -0.005423347912       -0.00111305409     -0.0007044642366       0.008300433893      6.382294095e-05        0.03830428259     -6.758374604e-06 
                   1                    9          -3.71475972         0.7900725889         0.1309983802        0.02190004856      1.284550974e-11      4.613907634e-55     6.799009635e-110         0.7389339401         0.5696879315         0.6626623402        0.08462270296         0.3904398262       0.002603832432         0.1735272604      1.350403771e-05 
                   1                    1          15.03533671       -0.01944812985      -0.003224606884     -0.0005390833627      -3.16200239e-13     -1.135742159e-56    -1.673618653e-111       -0.01821201944         0.0338839899       -0.01655611725      -0.001842559158       -0.01210265834     -6.254877731e-05       -0.02652536427     -5.273874414e-07 
                   0                  124           0.62116274       -0.01635167413      -0.001788947503      -5.91690288e-05     -5.843374729e-20     -1.320853013e-87    -1.499683309e-172      -0.004287169271      -0.003109943107       -0.00407157995     -0.0002359516983      -0.002912722099     -6.450872196e-09      -0.001830795159      1.865801527e-36 
                   1                   10          -4.91389102         0.1711109495        0.01872031594      0.0006191701609       6.11475859e-19      1.382197391e-86     1.569333103e-171         0.0445967356        0.03243461948        0.04239595642       0.002407442735        0.03046043127      3.391698755e-08        0.01617879629      6.731276378e-36 
                   1                    1          14.90040989      0.0003001051645      3.283286961e-05       1.08593964e-06      1.072444889e-21      2.424184873e-89     2.752395276e-174      0.0001423065089      5.533820251e-05      0.0001409550069       1.48076627e-06      0.0001357129502      9.014178379e-11      0.0001859357312      -2.03856615e-38 
                   0                  126           2.93916524        -0.2069922658       -0.02580413043      -0.001509566827     -1.532274732e-16     -4.845271472e-76    -6.737396359e-151       -0.08398004387       -0.05639453668       -0.07913643589      -0.005304821613       -0.05384713739     -2.750558738e-07        -0.0239083744      -4.61380815e-34 
                   1                   12          -3.78668053         0.3629146598        0.04524177355       0.002646687929      2.686501165e-16      8.495100244e-76      1.18125182e-150         0.1473590493         0.1099653932          0.138869549       0.009296317943        0.09400748827      5.300663027e-07        0.03810540121      1.958050396e-34 
                   1                    1          15.02909492      -0.008364225322      -0.001042703505     -6.099917322e-05     -6.191676325e-18     -1.957896455e-77    -2.722473761e-152      -0.003319533041      -0.005679422001      -0.003132776439     -0.0002045239319      -0.002133756017     -1.118257311e-08      1.795396517e-05     -9.081757184e-36 
                   0                  169          -5.65702605         0.1913350082        0.02132409843      0.0007678439598      1.525379297e-18      5.332148271e-85     1.754107313e-168        0.05234576483        0.03866033081          0.049734044       0.002856752791        0.03548931525      2.030278377e-08        0.01615192863      4.728804772e-33 
                   1                   20          -1.18485865        0.08442080391       0.009408615546       0.000338787998      6.730276272e-19      2.352649669e-85     7.739469685e-169        0.02303865361        0.01691465499        0.02189114104       0.001254904693        0.01558294207       6.29894284e-09       0.006598870776      1.535083879e-33 
                   1                    1          14.91413315     -9.380793675e-05     -1.045480227e-05     -3.764593751e-07     -7.478646276e-22     -2.614251477e-88    -8.600056492e-172      7.349760403e-05     -7.083745858e-05       8.15473109e-05     -8.782515327e-06      0.0001369207295      8.309828998e-11        0.00040052411      1.309754909e-35 
                   0                  170           -4.3120674         0.6675681187         0.1094634158        0.01764430529      7.611770541e-12      7.226910281e-56     2.022135795e-111         0.5988938692         0.4439271073         0.5382622878        0.06722575125         0.3221033406        0.00178313771         0.1297906074      2.750241797e-06 
                   1                   21          -1.30536017         0.4044269007        0.06631525495        0.01068929373      4.611371757e-12      4.378215263e-56     1.225052679e-111         0.3586146689         0.3033380385         0.3227994649        0.03979312613          0.199966607       0.001149082833        0.09121647295      7.907948285e-08 
                   1                    1          14.96324725      -0.007988114759      -0.001309838356     -0.0002111316157     -9.108238529e-14     -8.647715051e-58    -2.419686072e-113      -0.004685560934       -0.01522742781      -0.003808279682      -0.000969447792      0.0001209261002     -2.201035866e-05       0.006973664947     -2.517789019e-08 
                   0                  171          -3.63884474         0.8425456436         0.2075503514         0.1029326646       6.99918799e-07       1.36948129e-32      2.882881028e-65          1.922056893            1.6460722           1.52453241         0.4541081041           0.77504951        0.04360477227         0.1891952175       0.004369318644 
                   1                    6          -0.00055354         0.3041791295        0.07493064107         0.0371611539      2.526874273e-07      4.944155014e-33      1.040789004e-65         0.6886500161         0.5899296298          0.541761894         0.1667960138         0.2983872783       0.004878773935        0.03532351009      0.0005722090434 
                   1                    1          15.01079275       -0.02286730068      -0.005633067273      -0.002793667275     -1.899630453e-08     -3.716871683e-34     -7.824348483e-67        -0.0485339413       -0.03746250256        -0.0400829604      -0.009789711638       -0.02788378833      -0.001285720011       -0.02765024807     -0.0002627535584 
                   0                  172          -2.06931702         0.4725956682          0.204944162         0.2547562202       0.006090313801      4.695322056e-13       3.03908016e-26          2.810453724          2.847738094          1.659582085          1.374746427         0.2925613623         0.4834685166        -0.1999492109        0.09245121768 
                   1                    7          -0.02748242         0.3045458293         0.1320682646          0.164167701       0.003924664977      3.025717004e-13      1.958416571e-26          1.744451778          1.621945813           1.04480862         0.8873427434         0.5852955318         0.1025324132         0.3457888432         0.1599258033 
                   1                    1          14.95734637       -0.01037887516      -0.004500866207      -0.005594810076     -0.0001337519806     -1.031159715e-14      -6.67425364e-28       0.001733555656       -0.01235688849      -0.007273821304        -0.0251643249        0.01122434959       -0.01845115966      0.0007886529998       -0.04499605398 
                   0                  173          -4.19635552       0.003762915851      0.0003804325361      8.603589288e-06      3.007749588e-22      2.137155628e-95     7.569799194e-187       0.000731619255      0.0005431633512      0.0007000344222      3.450779442e-05      0.0005115392565      5.510562331e-11      0.0001738323043       3.26200702e-48 
                   1                   13          -3.60780676       0.004394430034      0.0004442789126      1.004749313e-05      3.512527425e-22      2.495825379e-95     8.840206436e-187        0.00085432862      0.0006342435043      0.0008174572642      4.028360352e-05      0.0005973929304       6.52297481e-11      0.0002021644426      3.839056103e-48 
                   1                    1          15.06471869     -0.0001367080148     -1.382124364e-05       -3.1257133e-07     -1.092725672e-23     -7.764359208e-97    -2.750133836e-188     -2.658102915e-05     -1.972044193e-05     -2.543428929e-05     -1.252860634e-06     -1.858872912e-05     -2.023932814e-12     -6.303278523e-06     -1.191868276e-49 
                   0                  174          -1.35756715         0.2015556643        0.03207097436       0.004675586631      8.679522589e-13      2.147901332e-58     6.328090149e-116         0.1693268351          0.136880153         0.1531836283        0.01781419507        0.09082798041      0.0002273424621       0.001326874074      6.573919427e-05 
                   1                   16          -3.64760592         0.7244079445         0.1152657689        0.01680445009      3.119493139e-12      7.719737349e-58     2.274368619e-115         0.6089564802         0.4904547065         0.5503666942        0.06458841757         0.3102159975      0.0007372096542        0.05270361917      0.0002686364376 
                   1                    1          15.04577265       -0.01959384191        -0.0031177174     -0.0004545280611     -8.437629083e-14     -2.088040508e-59    -6.151729768e-117       -0.01674051314       -0.01302505576       -0.01533320588      -0.001553296466      -0.009984674468     -1.812747143e-05      -0.003116244268     -7.912492957e-06 
                   0                  175          -3.49571515          0.533393125         0.0866750527        0.01355900928      4.547449189e-12      1.452073824e-56     1.042224738e-112         0.4715236467         0.3793042427         0.4245044264        0.05198340081         0.2381535442       0.001142875614        0.05357836827      0.0002214825421 
                   1                   22           -2.3641809         0.5584656601        0.09074927712        0.01419636046      4.761205373e-12      1.520329619e-56     1.091215277e-112         0.4900600185         0.3937629633         0.4416458977        0.05357318223         0.2572406024       0.001269797716        0.04536178617      0.0001751635252 
                   1                    1          14.97758074       -0.01003382387      -0.001630471358     -0.0002550627382     -8.554348021e-14     -2.731541205e-58    -1.960561352e-114      -0.007003243814      -0.006548464684      -0.006014924254      -0.001090322595      -0.001443390472      -2.11549228e-05       0.004223836732     -4.196252457e-06 
                   0                  176          -2.06794652         0.4430236982         0.0948599535         0.0335181566      1.184639831e-08      5.482785406e-40      1.079390049e-79         0.7471642661         0.6699963733         0.6381677974         0.1384783711         0.2847043894        0.02231128084        0.06713264415        0.02429233806 
                   1                   23           -2.4246999         0.7930519738          0.169807786        0.06000049287      2.120611064e-08       9.81467539e-40      1.932204558e-79           1.34604909          1.100931835          1.134240715         0.2462345098          0.520689823        0.03942503378         0.2053736597         0.0347506137 
                   1                    1          14.94068391      -0.006209160907      -0.001329501598     -0.0004697708688     -1.660321864e-10     -7.684351185e-42      -1.51280993e-81      -0.001673886225       -0.08736131638       0.001127268107      -0.002645070051        0.01178886823     -0.0002761378815        0.08170791408     -4.178871199e-05 
                   0                  177           -1.5090143         0.3690162679         0.1256242613         0.1142064954      0.0001656037412      5.562754757e-20      7.198438278e-40           1.44068687          1.393281902           1.04757271         0.5688313641         0.2687573637         0.1954795888        0.05720197097         0.2300028524 
                   1                   24          -1.30926267         0.6329365554         0.2154706829         0.1958869353      0.0002840434708      9.541234737e-20      1.234675846e-39          2.588743858          2.460546497          1.767918395         0.9737660731         0.5380884891          0.310642565        0.03793453869          0.140047654 
                   1                    1          15.04240577       -0.03152229382       -0.01073113903      -0.009755804872     -1.414628634e-05     -4.751844434e-21     -6.149086265e-41       -0.07966460237       0.003810519692        -0.1092236707       -0.03411360101       -0.08850518643       -0.02801127343        -0.1277391569        -0.1044147941 
                   0                  130           0.02164711      0.0008120420399      0.0003467558299      0.0004238348105      8.708353461e-06      3.444210926e-16      9.680999177e-30         0.0422327977        -0.1113509283        0.01440834531       0.004977842345         0.3657936929        -0.1669150312         0.5686955811      -0.008949249468 
                   1                   17          -1.20317463         0.5732579703         0.2447909511         0.2992045624       0.006147628798      2.431427522e-13      6.834264319e-27          3.301302201          3.258371231          1.985435599          1.603199466         0.5575446973         0.4782188204        0.03782251646         0.1580446328 
                   1                    1           14.9114234     -1.728555573e-05     -7.381227728e-06     -9.021971616e-06     -1.853706109e-07     -7.331529277e-18     -2.060748613e-31         0.1204394778       -0.06777608321        0.06507902918       -0.01024519913        0.09905548632      -0.005741119182        0.07741560773        -0.0935965739 
                   0                  131           0.66933794        -0.1505262517       -0.03864883732       -0.02099348781     -3.174325149e-07     -2.070744228e-31     -3.485659566e-62        -0.3727987434        -0.2979304778        -0.2946609817       -0.09138676721       -0.08877231703       -0.02621677186        -0.3231990088      -0.003488499818 
                   1                   18          -2.40501835         0.8710479563         0.2236486352         0.1214826945      1.836881874e-06      1.198274392e-30      2.017041284e-61          2.181401487          1.889791352          1.705983619         0.5454781186         0.8461290744        0.06245380617         0.1479527433        0.00654242157 
                   1                    1           14.9482355       -0.00862060869      -0.002213411276      -0.001202292898      -1.81792974e-08     -1.185911128e-32     -1.996230345e-63      -0.007019277111      -0.008161442372      -0.001483922341      -0.006406795487       0.008517136373     -0.0005199483528      -0.007925233093      -0.000918049956 
                   0                  132           2.07443262        -0.4396849906       -0.09590243362        -0.0355363788     -1.897517943e-08     -5.342840175e-39     -1.003735469e-77        -0.7895955703        -0.4562119243        -0.6551863604        -0.1516430192        -0.3691481225      -0.006292626154        -0.1967049549      -2.39471526e-06 
                   1                   19          -2.38648547         0.7957615684         0.1735685153        0.06431532834      3.434212873e-08        9.6697112e-39      1.816605362e-77          1.433350103          1.249064473          1.188027287         0.2765682436         0.6506438541       0.008475793142         0.2413200086      3.095232453e-06 
                   1                    1          15.04081977       -0.02778005948      -0.006059281911      -0.002245249981     -1.198884712e-09      -3.37569899e-40     -6.341774598e-79       -0.05117786822       -0.03210468074       -0.04384884507      -0.008310069644       -0.03192977243      -0.000345465531       -0.01515292842     -2.127346033e-07 
                   0                  133           2.86297395        -0.6628371182        -0.1699457217       -0.09202902399     -1.354451777e-06     -7.848024528e-31     -1.139194776e-61         -1.662768903         -1.457219789         -1.298315531        -0.4149399779         -0.650690395       -0.02434566296        0.09145188641      -0.001630471767 
                   1                   20          -1.18485865         0.5856096081          0.150145254        0.08130667277       1.19664387e-06      6.933646958e-31      1.006466578e-61          1.474664266          1.264663614          1.152801346         0.3664386096         0.5133943374        0.03074991261          0.306684731       0.002456064318 
                   1                    1          14.91413315     -0.0006507262018     -0.0001668405871     -9.034753122e-05      -1.32970414e-09     -7.704630674e-34     -1.118380171e-64        0.02053974192     -0.0005458840522         0.0237439795       -0.00350580606        0.05136356282     -0.0002608733146        0.08912063825      4.948574064e-06 
                   0                  134            4.2079326        -0.6919908302        -0.1186345493       -0.02208776541     -3.216840501e-11     -5.964058182e-53    -1.209817403e-105        -0.7068558148         -0.563508861        -0.6285198927       -0.08706205903        -0.3648979435      -0.001961272753        -0.1608295445     -2.462818644e-08 
                   1                   21          -1.30536017          0.434716254        0.07452752928        0.01387577728        2.0208546e-11      3.746686977e-53      7.60020605e-106         0.4472128135         0.3425648744         0.3966619884        0.05603326654         0.2236186467       0.001133318478        0.09063620449      8.976313711e-08 
                   1                    1          14.96324725      -0.008586380675      -0.001472044653     -0.0002740700509     -3.991529354e-13     -7.400339959e-55    -1.501169136e-107       -0.00547115078       -0.02143182625      -0.004124685498      -0.001484140971       0.002521235044     -2.209501149e-05        0.02935099013     -2.836872448e-09 
                   0                  135           4.88115526        -0.7636866424           -0.1268242       -0.02131219526     -1.305788667e-11      -5.66555722e-55    -1.056998086e-109        -0.7237106517        -0.5854654189        -0.6464799029       -0.08530085798        -0.3632178541      -0.001031141623       -0.06377950308     -3.688231972e-05 
                   1                    6          -0.00055354         0.2080378487        0.03454850754       0.005805710099      3.557132599e-12       1.54336906e-55     2.879395757e-110          0.197701249         0.1593372285         0.1759498364        0.02399631292        0.09407442129       0.000220554934        0.03401751343      1.444499631e-05 
                   1                    1          15.01079275       -0.01563967931      -0.002597256134     -0.0004364563694     -2.674148645e-13     -1.160259891e-56    -2.164645834e-111       -0.01345247325       -0.01189618012       -0.01174741656      -0.001877663031      -0.004491831012      -1.56451005e-05       0.004655238847     -1.136908477e-06 
                   0                  139           5.02428485        -0.1678080062       -0.01869623131     -0.0006722684084     -1.320152481e-18     -4.408783724e-85    -1.371015032e-168       -0.04692075242       -0.03453374059       -0.04453185343      -0.002612724762       -0.03140405044     -7.755309882e-09       -0.01546144096     -1.103627954e-48 
                   1                   22           -2.3641809         0.1237462186        0.01378711289      0.0004957491319      9.735165866e-19      3.251157836e-85     1.011024025e-168        0.03463794355        0.02544255817        0.03286649144       0.001937795882        0.02322099782       5.23918433e-09        0.01195735016     -1.431535002e-49 
                   1                    1          14.97758074      -0.002223319804     -0.0002477098815     -8.907010457e-06     -1.749094826e-20     -5.841280394e-87    -1.816483577e-170      -0.000564830893     -0.0004495883691     -0.0005284497797     -3.977320729e-05     -0.0003210486083     -8.168587796e-11      1.953107103e-05     -3.176344243e-50 
                   0                   45          -6.32017767        0.02661680315       0.002717619266      6.455695883e-05      3.618968393e-21      1.642877566e-93      4.66312944e-184       0.005194694901       0.003860960417       0.004964023562      0.0002519701272       0.003577667931      3.598037166e-10       0.001364849541      9.561016056e-47 
                   1                    3           0.09600974       0.005143715592      0.0005251818002      1.247567688e-05      6.993681414e-22      3.174872243e-94      9.01152985e-185       0.001003358711      0.0007451087274      0.0009587492632      4.872925942e-05      0.0006901123035      6.712655518e-11      0.0002650934228      9.672136599e-48 
                   1                    1           15.0400695     -0.0005399460433      -5.51293768e-05     -1.309596584e-06     -7.341406304e-23     -3.332726459e-95     -9.45958189e-186     -0.0001051147037     -7.820322015e-05     -0.0001004350236     -5.111604771e-06     -7.220955398e-05     -7.237938643e-12     -2.657778967e-05     -1.939527985e-48 
                   0                   46          -5.64907819         0.5324409498        0.07121650853       0.005524860177      5.561721733e-15      2.712827694e-70     6.216341737e-140         0.2627460285         0.1982625406         0.2454162484        0.01902516706         0.1613919373      2.914261057e-05        0.06084047761      2.910755798e-17 
                   1                    4           1.24900565       0.006874018383      0.0009194326413      7.132807954e-05      7.180397647e-17       3.50236537e-72     8.025537366e-142       0.003447597344       0.004903856783       0.003095972658      0.0003883368261       0.001592354851      2.342849851e-06      -0.007284492415     -9.972550773e-18 
                   1                    1          14.95400191       -0.00400244558     -0.0005353461261      -4.15312763e-05     -4.180837063e-17     -2.039276885e-72    -4.672925612e-142      -0.001188201003      -0.005581367429      -0.001037178495     -0.0001654155559     -0.0001100646628     -2.076282578e-07       0.003407267269     -1.564638309e-19 
                   0                   47          -4.29221109         0.9064914658         0.1921026998        0.06607466616        1.8490775e-08      3.082299959e-40      1.694336532e-80          1.503483139          1.240731566          1.254089594         0.2805566564         0.6858911596       0.006828230683         0.2320500623      6.604002802e-07 
                   1                    5           1.25463724        0.01419876562       0.003008987192       0.001034955908        2.8962896e-10      4.827938965e-42      2.653912167e-82        0.02470618364         0.0626569371        0.01919425114        0.00599555929      -0.005324965201     -0.0004042862724        -0.1699494125       8.41083605e-08 
                   1                    1          15.09097667         -0.037715105      -0.007992544627       -0.00274907494     -7.693194555e-10     -1.282408836e-41     -7.049385749e-82        -0.0677521333       -0.03387197008       -0.05985470202      -0.008980026804       -0.05004579137     -0.0003687301176       -0.06865496724     -2.149990105e-08 
                   0                   49          -5.58083476         0.2928488334        0.03449493824       0.001587943413      2.320100557e-17      2.464076481e-80     1.649517757e-159        0.09720205775        0.07185423813        0.09156150226       0.006178461186        0.06285394893      7.796174055e-07        0.03322823851      1.465021679e-30 
                   1                   12           3.59185547        -0.1185587685       -0.01396514833     -0.0006428730253     -9.392841407e-18     -9.975722618e-81     -6.67801171e-160       -0.03917765084       -0.02861574085       -0.03694234889      -0.002447571405        -0.0253523378     -2.899677023e-07         -0.011061374     -2.916268834e-30 
                   1                    1          15.02909492      -0.006150892499     -0.0007245193857     -3.335259737e-05     -4.873056502e-19       -5.1754584e-82    -3.464588294e-161       -0.00197586332      -0.001345638944      -0.001864777687     -0.0001217336812      -0.001329378479     -1.640064494e-08      -0.001127018706      -3.34228206e-32 
                   0                   50          -1.40607894         0.2217871473         0.1756156453          0.330733423         0.3372467515      0.0004012382995      2.499943359e-08          2.769834903          3.093856676         0.8885062138          2.284735106       -0.01510881249         0.7196122872       -0.03651800601          0.102023538 
                   1                    8           1.16367323        0.02457423904        0.01945839018          0.036645596        0.03736727935      4.445760725e-05      2.769962392e-09         0.2787191532         0.3396498545         0.1403930709         0.2227138412        -0.1739924253        -0.1366723866        -0.1699462293         0.5668794476 
                   1                    1           14.9296273      -0.002832579072       -0.00224289463      -0.004223998478      -0.004307184173     -5.124459303e-06       -3.1928303e-10        0.07376017482        -0.0250222559        0.08054128159       -0.04536405674        0.05709422051       -0.07351212373         0.1957673917         -0.140324909 
                   0                   51          -3.59064891         0.8409100507         0.2130250243         0.1123938085      1.315902231e-06      2.793511311e-31      1.156460757e-62           2.04120413          1.759476654          1.599315232         0.5024173693           0.71491236        0.03958662676         0.2860462373       0.002679653296 
                   1                   14           2.55118519        -0.2857989844       -0.07240053268       -0.03819913473     -4.472339472e-07     -9.494269868e-32     -3.930447849e-63        -0.6806236803        -0.6261987063        -0.5310646183          -0.17012559        -0.2893207414      -0.005375790633         0.3240087797     -0.0004349353314 
                   1                    1          14.97918851       -0.01577721095      -0.003996789839      -0.002108740197     -2.468904619e-08     -5.241204716e-33     -2.169759454e-64       -0.02816123091       -0.01968849556       -0.02112233864      -0.008134080941       -0.01487413016      -0.001185197052       -0.03986384977     -0.0002157735517 
                   0                   52          -2.15240271          0.490748388         0.2134623322         0.2662123543       0.006553774818      5.750446656e-13      4.375127526e-26          2.927930873          2.919645707          1.773717998          1.402902544         0.2964989725         0.4075086819        -0.2146000232          0.127099202 
                   1                   15           2.52084475        -0.2701114394        -0.1174912017        -0.1465251929      -0.003607244758     -3.165087164e-13     -2.408101631e-26         -1.595126918         -1.518105223        -0.9142851103        -0.7920788936        -0.4316477456       -0.07658253728        -0.4577688859       -0.05209395179 
                   1                    1          14.90488384       0.001456589098      0.0006335770295      0.0007901442419      1.945224311e-05      1.706788675e-15      1.298580538e-28         0.1288000228       -0.03048694849        0.07839833617      -0.007044472782         0.1032726908       -0.01275469592         0.1370087599       -0.07251367457 
                   0                    1           0.71437751        -0.1090821271       -0.08406660885        -0.1566023905        -0.1446307093     -0.0001111539761      -4.01111296e-09         -1.304903308         -1.927027154        -0.3904505473         -1.079426009       -0.03639089751        -0.5403404444       -0.01539356747        0.08967494663 
                   1                    2           0.01596608         0.2067663529         0.1593491672         0.2968415265         0.2741490753      0.0002106935651       7.60310804e-09          2.471470958           2.51897331         0.8454923432          2.006990575       -0.03997758897         0.4905962234       -0.07480533227         0.2876326991 
                   1                    1          14.95603519      -0.007073400843      -0.005451276369       -0.01015483939       -0.00937853898     -7.207749327e-06     -2.600995281e-10          0.135958353       -0.03841206756        0.01727476293       -0.06120066505       -0.05856279369        -0.1423465022       -0.03280887015        -0.4925671436 
                   0                    2           2.19982233         -0.491350014        -0.2123208069        -0.2629121441      -0.006071546247     -4.018861265e-13     -2.149926464e-26         -2.920786201         -2.808865482         -1.736157395         -1.404429892        -0.5786913085        -0.2579041508         -0.241848844        -0.1073544118 
                   1                    3           0.09600974          0.277071737         0.1197274714         0.1482558713       0.003423738306      2.266231484e-13      1.212341188e-26          1.638415933          1.723429863          1.002576857          0.784978355          0.018018043          0.286741931         -0.397853001         0.0786575185 