ITEM: TIMESTEP
0
ITEM: NUMBER OF ENTRIES
582
ITEM: BOX BOUNDS pp pp pp
0 4.26
0 2.4768
0 30
ITEM: ENTRIES c_2[1] c_2[2] c_2[3] c_2[4] c_2[5] c_2[6] c_2[7] c_2[8] c_2[9] c_2[10] c_2[11] c_2[12] c_2[13] c_2[14] c_2[15] c_2[16] c_2[17] 
                   0                   98           4.91883746       -0.02081818773      -0.002303031508     -8.016839564e-05     -1.206649454e-19     -1.414690436e-86    -1.212708097e-170      -0.005626801257      -0.004125277584      -0.005340028711     -0.0003138159298      -0.003811488415       1.63961301e-11      -0.002492268888      6.364339009e-56 
                   1                    2          -5.03860738         0.1931883073        0.02137163736      0.0007439454797      1.119744757e-18      1.312802317e-85     1.125367048e-169        0.05232696382         0.0381106297        0.04972514398       0.002845753525        0.03559838531      5.818646398e-09         0.0187028805      3.553382677e-56 
                   1                    1          14.94877064       5.69452478e-05       6.29962135e-06      2.192894605e-07      3.300621219e-22      3.869688298e-89     3.317193793e-173       3.14790189e-05      2.337381923e-05      2.975400741e-05      1.886279401e-06      2.185060348e-05     -3.185293169e-11      8.487829397e-06     -2.638924275e-57 
                   0                   68           4.25110097                   -0                   -0                   -0                   -0                   -0                   -0     -0.0007569954456      -0.008299799769        0.00105272437      -0.001911649197        0.01130998375      0.0001134761075        0.04527291376     -4.759122228e-06 
                   1                    1          -3.79575628         0.8137120297         0.1388539779        0.02547174737      3.272168883e-11      3.518983774e-53     3.615938187e-106         0.8142675677         0.5555045931         0.7276856335        0.09614402043         0.4257741182       0.002635299892         0.1908671386      9.505338624e-06 
                   1                    1          14.95059714                   -0                   -0                   -0                   -0                   -0                   -0      0.0009237461504      0.0007942762933      0.0009279354255     -7.122769568e-06       0.000212613986      8.032732876e-07     -0.0003241285453      1.301791482e-08 
                   0                   69           0.65883726          0.520025617        0.08244710561        0.01187390087      1.989769461e-12      3.164401219e-58     5.368007881e-116         0.4297110699         0.3448116214         0.3862198869        0.04783897289         0.2163263454      1.840793096e-05        0.05824069131     -8.027799263e-25 
                   1                    2          -2.56180738         0.5384665533        0.08537081123        0.01229496829      2.060329853e-12      3.276615924e-58     5.558365986e-116         0.4452542896         0.3596394214         0.4007575495        0.04895217089         0.2291069144      1.515253017e-05        0.02567812155      3.019638967e-24 
                   1                    1          14.94877064      0.0002644089817      4.192054107e-05      6.037329573e-06      1.011705769e-15      1.608951706e-61     2.729383805e-119        0.00097968446      0.0003597406267      0.0009895493323     -8.479210769e-06        0.00188948158      8.870270124e-08       0.001761707489      -1.02161667e-25 
                   0                   70           2.08020769         0.4566590712        0.09700585506        0.03357461973      9.918113934e-09      2.094721026e-40       1.54756422e-80         0.7598653306          0.671017413          0.644813092          0.138071155         0.2941570363        0.01711473957        0.08465070066        0.01885502683 
                   1                    3          -2.57000492         0.7841730007         0.1665780387        0.05765419317      1.703134276e-08      3.597045971e-40      2.657470648e-80          1.311376372          1.069697327           1.10361812         0.2392318193         0.5027011849        0.02905761923         0.2178738131         0.0262085645 
                   1                    1          15.04187512       -0.01920081376      -0.004078735044      -0.001411687759     -4.170197649e-10      -8.80752203e-42     -6.506931372e-82       -0.03639469249        0.05964174357       -0.03570294023      -0.003946663109       -0.02930345762     -0.0008119140309       -0.09538663323      -0.002647427166 
                   0                   71           2.81337098          0.222804498         0.0366794907       0.005990217251      2.885128688e-12      4.413501376e-56     2.240225548e-111         0.2037842066          0.165902034         0.1835994527         0.0222919812         0.1076772502      0.0002315290233      -0.005920370684      7.011123802e-05 
                   1                    4          -3.69304587         0.7517406102         0.1237563109        0.02021094552      9.734401325e-12      1.489111866e-55     7.558503243e-111         0.6864627738         0.5562573444         0.6144169808        0.07950105009         0.3398834606      0.0006945479347        0.05733988643      0.0002522183524 
                   1                    1          14.90695329       0.006763471694       0.001113445641      0.0001818395283      8.758120411e-14      1.339766113e-57     6.800447127e-113       0.008412563467       0.006254501434         0.0078826407      0.0005862374445       0.005837599554       5.23123408e-06       0.002838778883      2.467961239e-06 
                   0                   73           4.91883746        -0.1561180166        -0.0401372742       -0.02186352157     -3.388854499e-07     -2.464814364e-31     -4.753224813e-62        -0.3881392977        -0.3117107393        -0.3025282014        -0.0986158489       -0.09289100733       -0.02030745392        -0.3307871584      -0.001746190588 
                   1                    2          -2.56180738         0.8696612524         0.2235861876         0.1217915649      1.887774078e-06      1.373034063e-30      2.647801666e-61          2.177193829          1.879419131          1.712081685         0.5322233039         0.8634213231        0.05109017662         0.1426023511       0.004179886071 
                   1                    1          14.94877064      0.0004270390514      0.0001097899133      5.980461266e-05       9.26973864e-10      6.742155781e-34      1.300178327e-64       0.006298679289       0.004366093401       0.006128776266       0.000226573312       0.004836640565      5.911538689e-05       0.003233782045      4.776449184e-06 
                   0                   74           6.34020789        -0.4442423124       -0.09571386851        -0.0343678059     -1.396393874e-08     -1.189432187e-39     -5.017378349e-79        -0.7736093827        -0.5502673625        -0.6494895225        -0.1400543341        -0.3705823005      -0.005127926042        -0.1889352103      1.091056787e-12 
                   1                    3          -2.57000492         0.7927158175          0.170793946        0.06132667373      2.491756144e-08      2.122449128e-39      8.953121009e-79          1.379291279          1.149603933          1.156552186         0.2511934142          0.651255373       0.009012602267         0.2331888789       1.51864888e-12 
                   1                    1          15.04187512       -0.01940998831      -0.004181963351      -0.001501610027      -6.10117227e-10      -5.19690813e-41     -2.192210251e-80       -0.04083642658        0.08393627261       -0.03689396039      -0.004496802343       -0.03349072846      -0.000206567713       -0.06970129634      3.242945436e-14 
                   0                   75           7.07337118        -0.2837183415       -0.03876015165      -0.003262951619     -6.407453154e-15     -5.322455614e-69    -4.180597669e-137        -0.1529704892        -0.1061403268        -0.1431413777        -0.0107858122       -0.09544869259     -6.661512611e-06       -0.04339777848     -1.407063659e-16 
                   1                    4          -3.69304587         0.4876522256        0.06662055798       0.005608328354       1.10130659e-14      9.148183061e-69     7.185569136e-137         0.2627029722         0.1989438274         0.2456467896        0.01872032363         0.1633412241      1.556242471e-05         0.0633810842      2.225888785e-16 
                   1                    1          14.90695329       0.004387446919      0.0005993906036      5.045858845e-05      9.908545375e-17      8.230695049e-71     6.464915264e-139        0.00303041819       -0.00390503316       0.002947761946      9.161723096e-05         0.0027568569      1.259135345e-07       0.004830203682      2.107177754e-18 
                   0                   80           9.17883766        -0.1868515793       -0.02108896371     -0.0008040051784     -2.546083251e-18     -5.657019024e-84    -1.821901832e-166       -0.05401022926       -0.03920466117       -0.05120955008       -0.00306363199        -0.0361763837     -9.258111094e-09       -0.01883518485     -2.736613516e-54 
                   1                    2          -2.56180738         0.1410429831        0.01591878625      0.0006068949975      1.921884622e-18      4.270142331e-84     1.375243764e-166         0.0407526109        0.02980583222         0.0386186344       0.002334646008         0.0272509698      5.192692108e-09        0.01538918114     -1.537033206e-54 
                   1                    1          14.94877064       6.92578421e-05      7.816771599e-06      2.980101314e-07      9.437235287e-22      2.096813588e-87      6.75300631e-170      4.992864746e-05      5.395554225e-05      5.178061384e-05      -1.99139404e-06      8.118891077e-05     -6.272742457e-11      0.0002619773502     -1.135674482e-55 
                   0                   42          -0.00889923         0.7091767466         0.1220831632        0.02302895094       3.74652031e-11      1.123147344e-52     4.151769392e-105           0.72458326         0.5725584935         0.6428196838        0.09070474318          0.359137197       0.002478593289         0.1358393898      3.641624082e-06 
                   1                    1          -1.31895628         0.4123213341        0.07098017947        0.01338922606      2.178258467e-11      6.530073264e-53     2.413873696e-105         0.4203385585         0.3201891333         0.3747317185        0.05071451347         0.2174866435       0.001525778085         0.1320815013     -2.359362131e-07 
                   1                    1          14.95059714                   -0                   -0                   -0                   -0                   -0                   -0       0.001135464413       -0.04090003497       0.001262764363     -0.0001385027775       0.003255879804      1.304222009e-07        0.03305660793      5.082209616e-09 
                   0                   45          -1.44662922         0.2169033856        0.02449168413      0.0009356081714      3.011684566e-18       7.14203381e-84      2.49290622e-166        0.06296116928        0.04639162768        0.05967663083       0.003592657082        0.04175738829      6.183551683e-08        0.02098345861      1.780156486e-31 
                   1                    4          -1.21624587        0.09037775618        0.01020502032      0.0003898425419      1.254887251e-18      2.975891724e-84     1.038726389e-166        0.02626155574        0.01918310473         0.0249079616       0.001480140858        0.01739784967      1.703724844e-08       0.007734650077      8.135539719e-32 
                   1                    1          14.90695329       0.001661450878      0.0001876030196      7.166633261e-06      2.306910033e-20      5.470702225e-86      1.90953277e-168      0.0005531183604      0.0002794385652      0.0005330464894      2.198159398e-05      0.0004465004607      4.214253703e-10      0.0007203684908      1.396346192e-33 
                   0                   34           4.25110097                   -0                   -0                   -0                   -0                   -0                   -0        0.02171557633        -0.1330609528        0.01614471563       -0.01755607485         0.3864434679        -0.1612317419         0.5773275244      -0.008330762613 
                   1                    1          -1.31895628         0.5572350607         0.2433932895         0.3048959963       0.007813167168      8.180428237e-13      7.761829956e-26          3.229453866           3.26252439          1.981560835          1.610226898         0.5638500221         0.4406129346        0.03452312511         0.1523220621 
                   1                    1          14.95059714                   -0                   -0                   -0                   -0                   -0                   -0        0.01333077142        0.01153635374        0.01341825523     -0.0001139858844      0.0009880374375     -0.0006010296765       -0.00316595042      4.421455643e-05 
                   0                   35           0.65883726         0.8374868237         0.2135858328         0.1143426349      1.521495839e-06      5.664078869e-31      4.730369561e-62          2.056817149          1.774773373          1.615128834         0.5041076581         0.7438768145        0.04713765572         0.2560854996       0.004282595673 
                   1                    2          -0.08500738         0.2897536217        0.07389640869        0.03956025533       5.26407004e-07      1.959657537e-31      1.636612868e-62         0.7136723884         0.6427061128         0.5635771418         0.1709198445          0.320942173        0.00581140602        -0.2839335817      0.0002398646845 
                   1                    1          14.94877064      0.0004258233267      0.0001085985203      5.813794295e-05      7.736102843e-10      2.879922213e-34      2.405174202e-65       0.006320710975      -0.003293019992       0.006365525979     -3.125916915e-05        0.01080602179      8.728213922e-05        0.06712586201     -0.0002204794665 
                   0                   36           2.08020769         0.4911760009         0.2115161599         0.2609366286        0.00582638836      3.324707082e-13      1.477517386e-26          2.859706745          2.867996399          1.717615623          1.384831877         0.2898322528         0.4331650084        -0.2199647952         0.1193786669 
                   1                    3          -0.09320492         0.2830563223         0.1218931426         0.1503733128       0.003357647887      1.915971786e-13      8.514679799e-27          1.667301628          1.555155596         0.9952212483         0.7866745993         0.4936322737        0.08058435352         0.4305182811        0.05398060487 
                   1                    1          15.04187512       -0.02065212215      -0.008893467032       -0.01097141374     -0.0002449779384     -1.397915546e-14     -6.212410514e-28        -0.1098160027       -0.02634522868        -0.1321741593       -0.03028090931        -0.1703741802       -0.03540625661         -0.177412983        -0.1166613717 
                   0                   37           2.81337098         0.3383591742         0.1291898869         0.1380572602      0.0008496467637      1.658530577e-16      6.109343878e-33          1.519618777          1.544994858          1.081746033         0.6936983754         0.2751772661         0.2398417506        0.06706616077         0.3088044159 
                   1                    4          -1.21624587         0.5587245163         0.2133282103         0.2279706945       0.001403001642      2.738692386e-16      1.008821531e-32           2.76679281          2.668118562          1.769899081          1.156661617         0.4301398173          0.371435917        0.01101665281         0.1452452179 
                   1                    1          14.90695329        0.01027125896       0.003921698848       0.004190877562      2.579194714e-05      5.034649079e-18       1.85455746e-34         0.0317756266       -0.07708210716        0.07025398633        0.01310732231        0.08206066499        0.01267733225         0.1414039509        0.07098118195 
                   0                   38           8.51110117        -0.7091767466        -0.1220831632       -0.02302895094      -3.74652031e-11     -1.123147344e-52    -4.151769392e-105        -0.7248393517        -0.5557426654        -0.6456394626       -0.08793860088        -0.3740167495      -0.002282710586        -0.1994923997     -1.466092338e-05 
                   1                    1          -1.31895628         0.4123213341        0.07098017947        0.01338922606      2.178258467e-11      6.530073264e-53     2.413873696e-105          0.421951201         0.3477532256          0.373881977        0.05324792367         0.2035948529       0.001184350185        0.04477872519      1.892502544e-05 
                   1                    1          14.95059714                   -0                   -0                   -0                   -0                   -0                   -0       0.001215546032       -0.03580990671       0.001458197485     -0.0002675682344       0.003438970623     -6.560544242e-06        0.03011030631      6.191254323e-07 
                   0                   39           4.91883746        -0.1017044944       -0.08229335718        -0.1562805918        -0.1718998069     -0.0002857082699     -2.703359063e-08         -1.536292736         -1.652997773        -0.3876448935         -1.081221743        -0.0039957368        -0.3551896165       -0.03453917262        -0.0242465563 
                   1                    2          -0.08500738         0.1893015353         0.1531717841         0.2908834673         0.3199553526      0.0005317858809      5.031734578e-08          2.205285747          2.564411835         0.7438915242           1.99478465       -0.05064734065         0.5763822117       -0.09381527733         0.2521309715 
                   1                    1          14.94877064      0.0002781984537      0.0002251019963      0.0004274837533      0.0004702079369      7.815151078e-07      7.394661522e-11        -0.2913816157        -0.3094989295        0.03418196176      -0.007046178222        0.08263435832      5.791688965e-05         0.1610580448         0.0952941375 
                   0                   40           6.34020789        -0.4663570743         -0.207577442        -0.2652436412      -0.008126022549     -1.869198513e-12     -4.742639497e-25         -2.871722491         -2.763352372         -1.693073671         -1.398825189        -0.6404679599        -0.3091790382        -0.3348177353       -0.08352946332 
                   1                    3          -0.09320492         0.2792750232         0.1243064555          0.158839499       0.004866217885      1.119357863e-12      2.840100062e-25          1.678731181          1.790686502          1.001297568         0.8539095348        -0.0835671432         0.3727619478        -0.5039313513         0.1132145994 
                   1                    1          15.04187512       -0.02037623412       -0.00906954518       -0.01158911664     -0.0003550449796     -8.166966604e-14     -2.072170405e-26        -0.1186141855       -0.02612077788        -0.1320295402       -0.03619291043        -0.1671869145        -0.0295964307        -0.2807060706        -0.1184982502 
                   0                   41           7.07337118        -0.6667875297        -0.1772458826        -0.1035719622     -2.978996148e-06     -3.270437039e-29     -1.873762451e-58         -1.779945995         -1.570347986         -1.383432421        -0.4542286554        -0.7054075648       -0.04284396423         0.1272620252      -0.003181371599 
                   1                    4          -1.21624587         0.5609006988         0.1490989782        0.08712458373       2.50592722e-06      2.751086874e-29      1.576206244e-58          1.492744018          1.271155901          1.154613037         0.3884109016         0.4861406453        0.05338239541         0.4564788108       0.005037831212 
                   1                    1          14.90695329        0.01031126461       0.002740946875       0.001601646492      4.606747453e-08      5.057434368e-31      2.897603746e-60        0.04224293137        0.01117915185         0.0397541496       0.003169299344        0.05478890885       0.001877400454         0.1467234989     -0.0001730431752 
                   0                   46           9.17883766        -0.7537125926        -0.1231449898        -0.0196151081     -7.656805777e-12     -4.715578061e-56    -7.685687882e-112        -0.6737423095        -0.5472559152        -0.6035210187       -0.07730062332        -0.3335492262     -3.582931647e-05       -0.03914034362     -4.071608391e-23 
                   1                    2          -0.08500738          0.190097926        0.03105906335       0.004947232415      1.931164362e-12      1.189341426e-56     1.938448874e-112         0.1697555004         0.1376145944          0.151312773        0.02028955674        0.07884885108       1.04959893e-05        0.02396086174     -1.046388755e-23 
                   1                    1          14.94877064      0.0002793688334      4.564455003e-05      7.270476733e-06      2.838048506e-15      1.747861923e-59      2.84875386e-115       0.001290854583      0.0006492826212       0.001391028557     -0.0001097846245        0.00181489525     -6.620817591e-09       0.001524029742     -6.499865879e-26 
                   0                   47          10.60020809       -0.02088771613      -0.002126924658     -4.985213512e-05     -2.462256729e-21      -6.90158658e-94     -1.14024375e-184      -0.004084488149      -0.003064204494      -0.003899090177     -0.0002025716646      -0.002788327306     -5.160186508e-10     -0.0007872046044     -7.620771454e-47 
                   1                    3          -0.09320492       0.004115783268      0.0004190961265      9.823026241e-06      4.851710443e-22      1.359910983e-94     2.246773233e-185      0.0008050373107      0.0006042467901      0.0007684254753      4.000303121e-05      0.0005493109636      9.294149888e-11      0.0001623030922      1.253079498e-47 
                   1                    1          15.04187512     -0.0003002923874     -3.057774624e-05     -7.166995464e-07     -3.539864995e-23     -9.922070457e-96    -1.639272173e-186     -5.907385377e-05     -4.383934603e-05     -5.643496167e-05     -2.883494493e-06     -4.071269779e-05     -7.384407978e-12     -1.289111345e-05     -1.095588258e-48 
                   0                    8          -0.00889923         0.9092325462         0.1968793749        0.07160755061      3.252824998e-08      4.514180833e-39      3.503902196e-78          1.595205537          1.307105719          1.332132812         0.2962960759         0.7444902632       0.008175333091         0.2680603312      9.531459484e-07 
                   1                    1           1.15784372                   -0                   -0                   -0                   -0                   -0                   -0      0.0001056810117       -0.06589225527      0.0009283058987     -0.0008762240259        0.01965472523     -2.544940781e-05         0.1600805343      9.639732067e-09 
                   1                    1          14.95059714                   -0                   -0                   -0                   -0                   -0                   -0       0.002981577681        0.02886843518       0.003359351837      -0.000412460961       0.001689754492      1.375932396e-05       -0.06738032852      6.469133754e-09 
                   0                   11          -1.44662922         0.5199544414        0.06898682032       0.005185574275      4.034596675e-15      6.614911118e-71     3.894492789e-141          0.255973005         0.1892495511         0.2402266048        0.01726544115         0.1614314037      7.491512337e-06        0.06537525519      2.742430326e-18 
                   1                    4           1.26055413      -0.009372983991      -0.001243594267     -9.347800652e-05     -7.272985291e-17     -1.192440166e-72    -7.020426341e-143      -0.004570033373      0.0002588348439      -0.004278871647     -0.0003168819292      -0.002065595301      7.363110754e-07       0.002981227828     -2.765033082e-20 
                   1                    1          14.90695329       0.003982781369      0.0005284298024       3.97208043e-05      3.090447006e-17      5.066933305e-73     2.983129306e-143       0.002526230574      0.0001427351702       0.002452109923      8.133453257e-05       0.001979017526      5.227229758e-08     -0.0006001381707      2.088527989e-20 
                   0                    1           0.65883726         0.8378064824         0.2138935468         0.1147695313      1.558189935e-06      6.335778835e-31      5.908087895e-62          2.062122159          1.766088349          1.622373428         0.5020042499         0.8073915344        0.04645464371         0.2625036256       0.003728633143 
                   1                    2           2.39179262        -0.2877879997       -0.07347280938       -0.03942353579      -5.35240982e-07     -2.176351169e-31     -2.029438579e-62        -0.7098029294        -0.6183258026        -0.5594885555        -0.1711187749        -0.3352484073      -0.005714351453        0.08172581458     -0.0001693197594 
                   1                    1          14.94877064      0.0004259858584      0.0001087549787      5.835500005e-05      7.922675353e-10      3.221450588e-34       3.00398952e-65       0.006337602654      -0.001330430155       0.006358133963     -2.041212053e-06         0.0083685836      8.352737876e-05        0.04829653654     -0.0001860099878 
                   0                    2           2.08020769         0.4900511043         0.2122648337         0.2635222554       0.006228546686      4.566855366e-13       2.77624037e-26           2.87508762          2.892033834          1.729354055          1.393850507         0.2888567517          0.428749127        -0.2471527287          0.134976396 
                   1                    3           2.38359508        -0.2766975296         -0.119851082        -0.1487925574      -0.003516823992     -2.578583308e-13     -1.567548456e-26         -1.652554346         -1.500570107        -0.9745627791        -0.7831043871        -0.6486063536       -0.07449183493        -0.4945016389       -0.02822130926 
                   1                    1          15.04187512       -0.02060482443      -0.008924945976       -0.01108012972     -0.0002618871987     -1.920192653e-14     -1.167305714e-27         -0.114701671       -0.02686508211        -0.1335735425       -0.02995514053        -0.1969967719       -0.03523131326        -0.1930798141        -0.1158332061 
                   0                    3           2.81337098         0.2230246372         0.1763534561         0.3319435449         0.3368253974      0.0003921604148      2.378205578e-08          2.742396156          3.071664204         0.8800804142          2.260375968       -0.03681481579          0.677084723        -0.0583433773         0.1435074168 
                   1                    4           1.26055413       -0.01593272178       -0.01259856573       -0.02371381123       -0.02406256732     -2.801566168e-05     -1.698973185e-09         -0.100475633        -0.1551346129       -0.04919986096        -0.1744391456         0.1366920273        0.03731837291         0.1453939373        -0.5653909175 
                   1                    1          14.90695329       0.006770154258       0.005353400039        0.01007650559        0.01022469951      1.190445385e-05      7.219300442e-10        0.09156340017      -0.001439171099         0.1310887276        0.01995307316         0.3459725718         0.0448490316         0.2896602669         0.2494069045 
                   0                    4           8.51110117        -0.9092325462        -0.1968793749       -0.07160755061     -3.252824998e-08     -4.514180833e-39     -3.503902196e-78         -1.587732443         -1.324248117         -1.329055888        -0.2983110252        -0.5920465564       -0.03583802018        -0.2359942405       -0.03059566578 
                   1                    1           1.15784372                   -0                   -0                   -0                   -0                   -0                   -0       0.002461231503       -0.09995086198      0.0001699628837     -0.0003116441465        0.00660536148     -0.0003912878608        0.09108408554      -0.006976939158 
                   1                    1          14.95059714                   -0                   -0                   -0                   -0                   -0                   -0       0.002103419779        0.04371374304       0.004014286483     -0.0009064712597       0.004835224273      0.0001574984422       -0.03837787979       0.002964650672 
                   0                    5           4.91883746        -0.1012293079       -0.08238975564        -0.1568086413        -0.1759631267      -0.000319433892     -3.374751645e-08         -1.496377799         -1.667715545        -0.3982554716         -1.073636216       -0.01012966766         -0.448111797        0.05700694513         0.2068864196 
                   1                    2           2.39179262         -0.187067496        -0.1522527971        -0.2897757623        -0.3251724444     -0.0005903003738     -6.236398854e-08         -2.220297279         -2.543719081        -0.7368305306         -1.986467739        0.06015461968        -0.5473205529        0.04395762107        -0.4056482123 