ITEM: TIMESTEP
0
ITEM: NUMBER OF ATOMS
4
ITEM: BOX BOUNDS pp pp pp
0.0000000000000000e+00 4.2600002000000003e+00
0.0000000000000000e+00 2.4767999999999999e+00
0.0000000000000000e+00 3.0000000000000000e+01
ITEM: ATOMS id type c_1[1] c_1[2] c_1[3] c_1[4] c_1[5] c_1[6] c_1[7] c_1[8] c_1[9] c_1[10] c_1[11] c_1[12] c_1[13] c_1[14] 
1 1          13.96019592          12.60081655          6.115789459         0.3658865857      0.0001164860628      5.345858197e-09          48.59273797          43.37947876          36.12542126          14.69816945          15.29226481          2.562679751          3.253838637         0.8284240635 
2 1          13.95840946          12.59914359          6.117965752         0.3720681692      0.0001243320453      5.890027813e-09           48.5906328          43.38246491          36.10027485           14.7220252           15.2507452          2.569200009           3.23307105         0.8416334664 
3 1          13.95583558          12.59637008          6.100941855         0.3517903697      0.0001422073867      1.294151176e-08          48.61165034          43.33385665          36.17992023          14.58743986          15.23589273          2.489862188          3.100540631         0.6949647898 
4 1          13.96002446          12.60082136          6.102147956         0.3459194356      0.0001343614045      1.239734214e-08          48.63196948           43.3538884          36.20693519           14.5839625          15.26620057          2.514930464          3.093300815         0.6964177492 
