ITEM: TIMESTEP
0
ITEM: NUMBER OF ENTRIES
3684
ITEM: BOX BOUNDS pp pp pp
0 8.52
0 7.37854
0 30
ITEM: ENTRIES c_2[1] c_2[2] c_2[3] c_2[4] c_2[5] c_2[6] c_2[7] c_2[8] c_2[9] c_2[10] c_2[11] c_2[12] c_2[13] c_2[14] c_2[15] c_2[16] c_2[17] 
                   0                  163          -0.00324081        0.01254866633       0.001340569347      3.965933016e-05      1.542515092e-20      9.710203478e-90     1.396383576e-176       0.003017155886       0.002209697848       0.002874504481      0.0001560155901       0.002082713292      1.458485131e-10       0.001230712148      2.584039832e-50 
                   2                    1          -6.22595013         0.1223289393        0.01306835499      0.0003866134984      1.503699517e-19      9.465857649e-89     1.361245229e-175         0.0295046822        0.02143306756        0.02814296422       0.001488619707        0.02042713658      2.716009342e-09        0.01050036776      8.715976414e-50 
                   1                    1          15.01402589      0.0006783159332      7.246423833e-05      2.143778058e-06      8.338037974e-22       5.24883327e-91     7.548126659e-178       0.000157048854      0.0001138286002      0.0001493494075      8.411407909e-06      0.0001019063983      2.449602221e-11      1.607576198e-05       3.41132754e-52 
                   0                  166          -4.25244676           0.17730565        0.01991062522      0.0007419722971      1.951064754e-18      2.069772557e-84      2.67629488e-167        0.05086418246        0.03749155413        0.04823915331       0.002871298396         0.0339425026       6.07113158e-08        0.01700099765      1.085336889e-30 
                   2                   13          -3.70966454         0.1370540923        0.01539055674      0.0005735312986      1.508138115e-18      1.599897121e-84     2.068728016e-167        0.03924585615        0.02881512578        0.03719185288       0.002247011102        0.02607197695      5.821528957e-08        0.01365056706      6.830851903e-31 
                   1                    1          14.92754266       0.004397560508      0.0004938262214      1.840250478e-05      4.839059166e-20      5.133479985e-86      6.63778547e-169       0.001276548543      0.0009258421348       0.001213103045      6.940589675e-05      0.0008696666249      1.369456753e-09      0.0005164349348      2.878643534e-32 
                   0                  167          -3.45070959       0.009695805978      0.0009845810322      2.276320357e-05      9.862969402e-22        1.6640718e-94     1.559687347e-185       0.001916972215       0.001425350985       0.001835957502      8.849653069e-05       0.001346799307      1.164071131e-10      0.0004758471934      5.422301387e-47 
                   2                   14           -4.9482016        0.01189584985       0.001207989119      2.792832822e-05      1.210094378e-21      2.041660932e-94     1.913590941e-185       0.002351699931       0.001748200584       0.002252290577      0.0001085894735        0.00165233982      1.460684194e-10      0.0005845287428      6.628048274e-47 
                   1                    1          15.02697743      5.206853169e-05      5.287408679e-06      1.222432244e-07      5.296623468e-24      8.936418018e-97     8.375851395e-188       1.00942599e-05      7.544679756e-06       9.64586331e-06      4.898212574e-07      6.941878794e-06      5.515462974e-13      2.314843665e-06      2.960052956e-49 
                   0                  168          -2.22364907         0.2488976728        0.03257028705       0.002318438819      1.157250837e-15       2.91121992e-72      1.65763081e-143         0.1193628084        0.08446945954         0.1122891154       0.007756200116         0.0766890234      4.708967585e-06        0.03354894463      1.416707285e-17 
                   2                   15          -4.89769663         0.4317007586        0.05649155923        0.00402121798      2.007194598e-15      5.049367612e-72     2.875079024e-143         0.2068114173         0.1542648285         0.1943845863        0.01362871625          0.132308976      1.069950461e-05        0.05098706431      1.954404157e-17 
                   1                    1          14.99410218       0.004763100134      0.0006232904344      4.436745481e-05      2.214605527e-17      5.571137662e-74     3.172171698e-145       0.002086110044       0.009173628221       0.001933894158      0.0001666904057       0.001178359845      5.451888486e-08     -0.0004548633473      3.227114997e-19 
                   0                  123            2.7569808      -0.004229769539     -0.0004290501489     -9.865323385e-06     -4.054511465e-22     -5.554192187e-95    -4.125431023e-186     -0.0008257516908     -0.0006147327418     -0.0007882654603     -4.096032248e-05     -0.0005660394821     -1.099912741e-10     -0.0001795440717     -5.238114315e-49 
                   2                    4          -6.05405562        0.01226269099       0.001243876137      2.860094647e-05      1.175459342e-21       1.61023767e-94      1.19601991e-185       0.002393854658       0.001782782973       0.002285107369      0.0001188243214       0.001640374384      3.077623955e-10      0.0005302994913       2.16137867e-48 
                   1                    1          15.04523977      7.447614466e-06      7.554548933e-07      1.737047952e-08      7.139026834e-25      9.779606596e-98     7.263899247e-189      1.329005533e-06      1.028129912e-06       1.26504564e-06      6.989561585e-08      8.957412028e-07      1.948000165e-13      4.327113443e-07      9.898336811e-51 
                   0                  124           0.76149225       -0.01891031151       -0.00316958846     -0.0005488944808      -4.33403066e-13     -5.645253275e-56    -4.155859343e-110       -0.01870415304       0.003472572547       -0.01828168122     -0.0005567872683       -0.02190280071     -0.0001087614386       -0.05784905026      5.007109836e-06 
                   2                   10          -4.93063194         0.7992139315         0.1339575635        0.02319814328      1.831708421e-11       2.38587559e-54     1.756407176e-108          0.768792529         0.6020739723         0.6879238804        0.08993854616         0.4058417369       0.003350001237         0.1630160932       7.69839332e-06 
                   1                    1          15.06075013      -0.001882344263     -0.0003155028225     -5.463730074e-05      -4.31412129e-14     -5.619320501e-57    -4.136768444e-111      -0.005311582731        0.02047346174      -0.005189444195     -0.0001366032929      -0.006172422281     -7.416363045e-06       -0.03326139632      2.526740181e-07 
                   0                  125            2.1487545        -0.2214935872       -0.03541605361      -0.005249114955     -1.118874151e-12     -5.031961454e-58    -3.125308597e-115        -0.1890848297        -0.1541351025        -0.1709377722       -0.02007727469        -0.1018296282     -0.0004345527518         0.0113380936     -6.987133749e-05 
                   2                   11          -4.84620608         0.7238548301         0.1157418677        0.01715443441      3.656550371e-12      1.644476325e-57     1.021370303e-114         0.6131354431         0.4943466536         0.5515899505        0.06800915178         0.3080041827       0.001289597833        0.06271631351      0.0003375226827 
                   1                    1          15.02884664       0.002959040569       0.000473140287      7.012547992e-05      1.494758402e-14      6.722442067e-60     4.175251773e-117      0.0007313186152       0.000570419326       0.000497028682      0.0002613859141      5.349585445e-05      1.903897933e-07        0.00133104779      5.533701555e-06 
                   0                  126           2.80490572        -0.4465922006       -0.09278090545       -0.03027958699     -5.377884003e-09     -1.227739174e-41     -5.630988712e-83         -0.715633958        -0.6583516554        -0.6043666473        -0.1271055657        -0.2787316565       -0.01843996253       -0.09657084294       -0.01533125476 
                   2                   12          -3.73343743         0.7866380719         0.1634264828        0.05333518116      9.472732165e-09      2.162568838e-41      9.918556788e-83          1.244082137         0.9861512756          1.054936027         0.2244208168         0.4799314572        0.03277636784         0.2024878412        0.03262709182 
                   1                    1          15.04577776      0.0006577723757      0.0001366542374       4.45979035e-05      7.920925471e-12       1.80830053e-44      8.293715872e-86       -0.01174166294        -0.1364114697      -0.008224740057      0.0009903783446      -0.007277410182      0.0002192249383        0.03616692974       0.003368009447 
                   0                  130           4.26755324        -0.5005874241       -0.07750655311       -0.01029199599     -8.748409668e-13     -7.434576292e-60    -3.255890922e-119        -0.3864096392        -0.3103232694        -0.3491416448       -0.04099779483        -0.1958844805     -0.0001662839939       -0.04382074508     -4.878141843e-05 
                   2                   13          -3.70966454         0.5226379024        0.08092065521        0.01074535024      9.133770164e-13      7.762063472e-60      3.39931033e-119         0.4023610583         0.3240841273         0.3640204529        0.04219641527         0.2104969805       0.000183526401        0.02238281765       5.22745397e-05 
                   1                    1          14.92754266        0.01676952334       0.002596445473      0.0003447786713      2.930690086e-14      2.490559983e-61     1.090713353e-120        0.01361975797        0.01019154545         0.0124461684       0.001292702334        0.00866069756      3.552364157e-06       0.005763227733      1.445552789e-06 
                   0                  170           -5.7156034        0.01850435996       0.001882102796      4.386572165e-05      2.053264089e-21      4.679533601e-94     6.135002161e-185       0.003612398915       0.002699715993       0.003442259445      0.0001859221238       0.002445348498      3.078329983e-10      0.0008958443595      7.316081225e-54 
                   2                   20          -1.14310284          0.003543284      0.0003603920773      8.399572321e-06      3.931666814e-22      8.960545827e-95     1.174753142e-185      0.0006919192978      0.0005164257018      0.0006593094386      3.563469387e-05      0.0004684012845      5.490998752e-11      0.0001800165996     -1.548765027e-55 
                   1                    1          14.94154682      0.0003125884899      3.179378656e-05      7.410102118e-07      3.468516191e-23      7.904992906e-96      1.03636714e-186      6.103563654e-05      4.556681625e-05       5.81617365e-05      3.140505255e-06      4.132722458e-05       5.28121718e-12      1.529279347e-05      1.552824344e-55 
                   0                  171          -4.35595734         0.7192722295         0.1136754767        0.01619596801      2.479970523e-12      2.671532127e-58     2.786642861e-116         0.5927146522         0.4791243489         0.5333893465        0.06524203607         0.2978966393      2.122612829e-05        0.04323983183      6.842093701e-22 
                   2                   21          -1.28409114         0.1954745329        0.03089325543        0.00440153137      6.739744143e-13      7.260345573e-59     7.573178683e-117          0.160224111         0.1271560121          0.144006508        0.01782422366        0.07827656969      9.927417152e-06        0.04061345458     -2.707306413e-22 
                   1                    1          15.01063501       0.005514566788      0.0008715351194      0.0001241723837      1.901361198e-14      2.048228993e-60     2.136482897e-118       0.002750585541       0.003118165725        0.00214218517       0.000668685513     -0.0007587007125      2.423449779e-07      -0.004271188442       3.12346207e-24 
                   0                  172          -2.14407098          0.657042172         0.2492189635          0.264041729       0.001504367421      2.090729028e-16      5.037254392e-33          3.182837339          3.076041486          2.094573897           1.32184304         0.5214694899         0.4000879212        0.04401625239         0.1885899564 
                   2                    7          -0.04906071        0.02912333528        0.01104660818        0.01170362593      6.668095087e-05      9.267137645e-18      2.232758487e-34         0.1133938947        0.01849600558        0.09445449165        0.04700980115        0.07435361487        0.02535205615         0.1419762151         0.1011859929 
                   1                    1          14.96658371        0.01941990392       0.007366054316       0.007804164216      4.446392031e-05      6.179475012e-18      1.488838928e-34        0.02534802154      -0.007735071488        0.05982900113        0.03235418259        0.03156149729        0.04744841096         0.1464218592         0.2902477062 
                   0                  173          -1.46499413          0.451025205        0.09798721691        0.03594387704      1.758027481e-08      3.371427817e-39      3.919922818e-78         0.8048052763         0.6044685266          0.671667874         0.1503038808         0.3905710721       0.005083629767         0.2522020975      1.615726458e-06 
                   2                   16          -3.61504989         0.7893848632         0.1714973464        0.06290901738      3.076901839e-08      5.900677073e-39      6.860653692e-78          1.407728681          1.181748604          1.173480957         0.2639313219         0.6551784487       0.007688129715         0.1797105557      3.198921583e-06 
                   1                    1          14.94770832        0.02166347653       0.004706485914       0.001726443064      8.444092849e-10      1.619351792e-40      1.882802891e-79        0.03925208604        0.00638329383        0.03449528292       0.005451261496           0.02758871      0.0004854849669         0.0464869372      7.818471619e-08 
                   0                  174           -0.0092087         0.1043284292        0.07933012572          0.146951299         0.1289746673      7.916033433e-05      2.156734118e-09          1.289834204          1.487671098         0.3699169627          1.034391425        0.04817999474          0.419898698        -0.0795363401        -0.2829464237 
                   2                   17           -1.2723067         0.2154124676         0.1637971382         0.3034181784         0.2663008688      0.0001634465609       4.45312387e-09          2.487073414          2.753560343         0.8593237134          2.033934841       -0.03515863986         0.5766236483        -0.0215156974         0.3552675641 
                   1                    1          15.03306458       0.002542702078       0.001933441125       0.003581510584        0.00314338246      1.929302953e-06      5.256412242e-11       -0.06988974391        0.02479428011       -0.09373264998        0.06149588461        -0.0882683539        0.04875380614       -0.05000851593        0.08952518206 
                   0                  175          -3.64291749         0.6807514438         0.1137299683        0.01948781619      1.407244513e-11      1.244481045e-54     5.648979741e-109         0.6504650303         0.4937069302         0.5820390119        0.07569652299         0.3366647016      0.0008966121268         0.1648342516      7.991193062e-07 
                   2                   22          -2.53113888         0.4138555836        0.06914092187        0.01184741012      8.555193006e-12      7.565689855e-55     3.434237016e-109         0.3952697089         0.3309391571         0.3517507861        0.04803833094         0.1919841383      0.0004377434366        0.04205926196      8.018602632e-07 
                   1                    1          14.99331339       0.008838761621       0.001476650674      0.0002530265098      1.827142477e-13      1.615813143e-56     7.334539762e-111       0.006789133617        0.03404164254       0.005774084759       0.001119388849       0.001524546586     -7.315547674e-07       -0.01722162775      5.878058376e-08 
                   0                  176          -2.11138083         0.6435469692           0.16512261        0.08956019332      1.336767984e-06         8.238299e-31      1.291641684e-61          1.613841375          1.407968975          1.267664638         0.3949278974         0.6609438891        0.02828010596       -0.08005882506       0.001645998313 
                   2                   23          -2.52076431         0.6063508248         0.1555787465        0.08438373528      1.259504602e-06       7.76213646e-31      1.216986541e-61          1.513648257          1.299947347           1.18541625         0.3741954853          0.511771002        0.03694106634         0.3104750472       0.002915689683 
                   1                    1          15.07751757      -0.006671734032      -0.001711847293     -0.0009284820197     -1.385844527e-08     -8.540750317e-33     -1.339061512e-63       -0.04155181715       -0.01597751079        -0.0409778135     -0.0006447872819       -0.05638777991      0.0007636000354        -0.1053833835      -5.05006792e-05 
                   0                  177          -1.49441135         0.4861556851         0.2065159234         0.2509645666       0.004895045515      1.539352555e-13      3.248893748e-27          2.818901021          2.709558014          1.696981962           1.32004866         0.6340117718         0.2639243354         0.2725106353        0.08511000694 
                   2                   24          -1.28786853          0.309857341          0.131625479         0.1599553717       0.003119917825      9.811253972e-14      2.070722629e-27          1.735702788          1.789508701          1.076733844         0.8358265088      0.0001873858768         0.3025925518        -0.3814761782         0.1099827904 
                   1                    1          14.94721727        0.02314116885       0.009830225173        0.01194599506      0.0002330057599      7.327368268e-15      1.546483999e-28        0.08824438309        0.04177949818         0.0958789759        0.04701816384          0.111175841          0.051802472         0.1819856154        0.06516182596 
                   0                  133            9.512e-05         0.1503955505        0.03871675374        0.02114901359      3.360041659e-07      2.723571582e-31      6.013771929e-62         0.3719529734         0.3107799345         0.2871667731        0.09883447397        0.08136186186        0.02440051077         0.2329395201       0.003691256458 
                   2                    9          -3.64569432         0.8701759821         0.2240118746         0.1223664105       1.94409179e-06      1.575835567e-30      3.479517762e-61          2.188830655          1.891152622           1.71104938         0.5482443498         0.8712484198        0.05593459419         0.1675849628       0.009270917007 
                   1                    1          15.08770627      -0.009062601282      -0.002333011189       -0.00127440657     -2.024708692e-08     -1.641181752e-32     -3.623805159e-63       -0.04861151789       -0.01830963481       -0.04634196945       -0.00265117259       -0.05933374105      1.299673657e-05        -0.1355708259     -0.0003576440451 
                   0                  134           0.64685473     -0.0008695461449     -0.0003604236135     -0.0004259794238     -6.471019851e-06     -6.763626279e-17      -3.60384292e-31       0.004927337557        0.09501522519       -0.02940018597        0.01865564664        -0.3854948881         0.1454170627        -0.5104388291       -0.07006846033 
                   2                   18          -2.51358167         0.5939241681         0.2461793386         0.2909557778       0.004419886287      4.619744604e-14      2.461524809e-28          3.285471826          3.210359451          2.003652689          1.544494189         0.6064483633         0.4056494765        0.03279237141         0.1334869044 
                   1                    1          14.93773162        0.02552580694        0.01058035118        0.01250476308      0.0001899588704      1.985484262e-15      1.057919688e-29         0.1176851276        0.05163161589         0.1105517723        0.04800484096          0.167772436        0.04505701631         0.2410517355        0.06005687554 
                   0                  135           2.08697596        -0.3430333159        -0.1258579022        -0.1275171794     -0.0004870142408     -1.162703674e-17     -3.100031693e-35         -1.795597807         -1.411686445         -1.048863465        -0.6511685223         -0.283402759        -0.2139610261       -0.06771700565        -0.1118508942 
                   2                   19          -2.40407216         0.5888354427         0.2160419707         0.2188902107      0.0008359865727       1.99584443e-17      5.321373901e-35          2.498510341          2.669575431          1.772456076             1.125933         0.4408469889         0.3767889392        0.01511519676          0.295320995 
                   1                    1           15.0971842       -0.01145629712      -0.004203281303      -0.004258696248     -1.626483373e-05     -3.883086027e-19     -1.035318802e-36        -0.3594016058         0.1202733642        -0.1106484203      -0.003554883127        -0.1156129688      -0.003089526066       -0.07321374013         0.0402027029 
                   0                  136            2.8043966        -0.4868314011        -0.2120237149        -0.2647736458      -0.006597571017     -6.105402682e-13     -4.964736968e-26         -2.891763902         -2.910750682         -1.703010705         -1.439591836        -0.2771481774         -0.482246787         0.2366134354        -0.1053924952 
                   2                   20          -1.14310284         0.2742555481         0.1194431584         0.1491597321       0.003716729141      3.439467042e-13      2.796875171e-26          1.646139312           1.53218397         0.9850905034         0.7858805637         0.5683027984        0.07182314902         0.4908554014        0.09425173232 
                   1                    1          14.94154682        0.02419482255         0.0105372746        0.01315887053       0.000327889819      3.034297585e-14      2.467403082e-27         0.1018642591        0.07965248701         0.1039090041        0.05811297233        0.07789172556        0.06058566031         0.1991815017         0.1382393644 
                   0                  137           4.16404266        -0.8237211494        -0.2121570514        -0.1160125756     -1.860263564e-06     -1.570333864e-30     -3.647709237e-61         -2.063397773         -1.773994125         -1.605514924        -0.5263053448        -0.7450787093       -0.06632666739        -0.3470865752      -0.009433339963 
                   2                   21          -1.28409114         0.3178330448        0.08186085991        0.04476348601      7.177832368e-07      6.059137778e-31      1.407469669e-61         0.8041736326         0.7353261855         0.6292210739         0.1991625318         0.3528335952       0.008199494727        -0.3057916929       0.001481604961 
                   1                    1          15.01063501       0.008966444513       0.002309391267       0.001262830659      2.024951046e-08      1.709354127e-32      3.970637697e-63        0.01179476032        0.03186173093       0.004525052578       0.008437385535       -0.03278119136       0.001560064873        -0.1017915288      0.0008341971456 
                   0                  138           6.37592902        -0.5007848051       -0.06563977426      -0.004702999357     -2.475596629e-15     -7.791953541e-72    -5.865773473e-143        -0.2365449791        -0.1764600423        -0.2218558358       -0.01610145246         -0.147859998     -3.545708385e-06       -0.05822073114     -7.394893112e-17 
                   2                    7          -0.04906071         0.0107915958       0.001414495618      0.0001013466615      5.334754154e-17      1.679116704e-73     1.264037082e-144       0.005571628535      9.364754617e-05       0.005180544592      0.0004290566033       0.003280331655       3.50649421e-07       0.005007522764      1.074858111e-17 
                   1                    1          14.96658371       0.007196007998      0.0009432082117      6.757956838e-05      3.557299055e-17      1.119661767e-73     8.428800633e-145       0.003353937063       0.001074428496       0.003102552781      0.0002751092794       0.001678316618      3.418941854e-08       -0.00237800891      6.821598576e-19 
                   0                  141           4.87708251         -0.688863805        -0.1168252734       -0.02101134279     -2.283726023e-11     -1.189305621e-53    -4.941100802e-107        -0.6739593565        -0.5439759702        -0.5990797447       -0.08328201818        -0.3393600005      -0.003446229581        -0.1125506125     -2.530714357e-05 
                   2                   22          -2.53113888         0.4239273977        0.07189437707        0.01293039902      1.405407024e-11      7.318997357e-54     3.040757824e-107         0.4133804361         0.3001030632         0.3686538037        0.04985100026         0.2201484574       0.002144001766         0.1541597328     -9.196289584e-07 
                   1                    1          14.99331339        0.00905386652       0.001535456536      0.0002761560292      3.001544055e-13      1.563126741e-55     6.494181695e-109       0.007359633122        0.02498014763       0.006049700429       0.001449754994      0.0001481525452      4.495067713e-05       -0.02420405759      1.385468574e-06 
                   0                  142           6.40861917        -0.1191884127       -0.01278044569     -0.0003848256997     -1.736973708e-19     -1.926396281e-88    -5.509310189e-175       -0.02827098518       -0.02043170901       -0.02692311595      -0.001473854001       -0.01942793584       -2.3416412e-09        -0.0106714658     -8.406668692e-58 
                   2                   23          -2.52076431        0.05365016784        0.00575284997      0.0001732212295      7.818623378e-20      8.671269421e-89     2.479900602e-175         0.0127287116       0.009158886357        0.01212337307      0.0006618467685       0.008741429324      1.232883321e-09       0.004572240973      7.155525362e-57 
                   1                    1          15.07751757     -0.0005903177434     -6.329913865e-05     -1.905969159e-06     -8.602903393e-22     -9.541077696e-91    -2.728657498e-177      -0.000169257678     -4.850891611e-05     -0.0001654883539     -4.140066492e-06     -0.0001551555653     -1.060215716e-12     -0.0002788414378      2.870662344e-58 
                   0                   47          -0.00324081        0.08918825968         0.0813978106         0.1610279246         0.2566958651       0.002194165433      1.607202883e-06         0.7192257979           1.00452601         0.3767184523          1.128087673        -0.1397502884         0.3872512435      -0.001067578349         0.2441512683 
                   2                    1           1.15258587        -0.1487753814        -0.1357800943        -0.2686114851        -0.4281956545      -0.003660098316     -2.680983155e-06         -2.436858712         -2.751849869        -0.5358338939         -1.941794855        0.06764791204        -0.5927581109        0.09553699664        -0.1659257281 
                   1                    1          15.01402589       0.004821055561       0.004399944217       0.008704335906        0.01387564947      0.0001186052234      8.687706681e-08        -0.5895648566        -0.1200315962       -0.04513310914        0.07556555182        0.09842698937         0.1680339347        0.08099016339         0.1245254255 
                   0                   48          -4.24322931         0.7688817855         0.1277288073        0.02148717981      1.328433478e-11      5.993430932e-55     1.174063978e-109         0.7172870545         0.5791583307         0.6432961696        0.08150244405         0.3661761991      3.356512555e-05        0.05783477947      8.286024104e-24 
                   2                    5            1.2803436        -0.1897485596       -0.03152156503      -0.005302715575     -3.278375736e-12     -1.479089384e-55     -2.89741483e-110        -0.1774644645         -0.144953926        -0.1578536341       -0.02157912836       -0.08156612776      -1.11865267e-05       -0.01369370512      8.643328538e-24 
                   1                    1          15.04159263       0.001159585019      0.0001926335285      3.240577716e-05      2.003469959e-14      9.038961321e-58      1.77065841e-112      -0.002203696713     -0.0001483514729      -0.002758140178      0.0006067178688      -0.005722248163     -1.079215336e-07       -0.00709637629      4.720458519e-25 
                   0                   49          -3.56280286         0.9098260855         0.2007771607        0.07662878413      5.289923283e-08      4.584568029e-38      3.508686766e-76          1.654578431          1.387828348          1.381544813         0.3147393415         0.6138609003         0.0369171605         0.2365573298        0.03106237322 
                   2                    6           0.06035051       0.003056289207      0.0006744509519      0.0002574115313      1.776991855e-10      1.540048808e-40      1.178638607e-78       0.002458818632         0.0650267152       0.004445119094       -0.00229868901        0.01937102566      0.0001414354521        -0.0948304401     -0.0004144309116 