ITEM: TIMESTEP
0
ITEM: NUMBER OF ENTRIES
588
ITEM: BOX BOUNDS pp pp pp
0 4.26
0 2.4768
0 30
ITEM: ENTRIES c_2[1] c_2[2] c_2[3] c_2[4] c_2[5] c_2[6] c_2[7] c_2[8] c_2[9] c_2[10] c_2[11] c_2[12] c_2[13] c_2[14] c_2[15] c_2[16] c_2[17] 
                   0                   68           4.24855125                   -0                   -0                   -0                   -0                   -0                   -0     -0.0006504737477      -0.007923777026       0.001467287581      -0.002262342072        0.01131928244      0.0001139072661        0.04601843085     -1.738112418e-06 
                   1                    1          -3.78455736         0.8137120297         0.1388539779        0.02547174737      3.272168883e-11      3.518983774e-53     3.615938187e-106         0.8124978826         0.5564350815         0.7243917515         0.0975184445         0.4126147199       0.001371112179         0.1877097395      7.492705326e-06 
                   1                    1          14.91165326                   -0                   -0                   -0                   -0                   -0                   -0        0.00685389096       0.003970429889       0.007118518045     -0.0002899555183       0.008324597885      6.147408618e-06       0.006144503213     -1.893319185e-07 
                   0                   70           2.11798933        0.01106906143       0.001133545025      2.732820926e-05      1.758607361e-21      1.341490981e-93     6.848404831e-184       0.002214495056       0.001657558422        0.00211200514      0.0001120010113       0.001505652395      3.585598412e-10      0.0004163681002      2.986058611e-49 
                   1                    3          -4.92432808        0.03165732673       0.003241919421      7.815821196e-05      5.029587031e-21      3.836641304e-93     1.958632091e-183       0.006335905839       0.004745601778       0.006042230976      0.0003209291317       0.004307174374      1.005163935e-09       0.001249030505      3.706987653e-49 
                   1                    1           14.9839148     -0.0003754255709     -3.844605895e-05     -9.268815274e-07     -5.964608443e-23     -4.549889081e-95    -2.322750045e-185     -7.378461566e-05     -5.760349929e-05     -7.025667834e-05     -3.854784455e-06     -4.911049112e-05     -1.248534539e-11     -9.696219003e-06     -2.237780352e-50 
                   0                   71           2.74265171         0.2296471985        0.03745715315       0.005932905131      2.208987157e-12      1.108709975e-56     1.399631964e-112         0.2043155239         0.1676094722         0.1833795071        0.02305406946         0.1037014539      5.714733733e-06       -0.01111831302      2.810776466e-23 
                   1                    4          -3.68730923          0.740585658         0.1207949873        0.01913293295      7.123728129e-12      3.575461455e-56     4.513651227e-112         0.6597056899         0.5350774797         0.5901148501        0.07660119407         0.3231245466      3.123840245e-05        0.05430847032      8.472508526e-24 
                   1                    1          15.07435571       -0.02481185553      -0.004046996779     -0.0006410110202     -2.386664004e-13     -1.197887538e-57    -1.512209438e-113       -0.02176293963       -0.01724717706       -0.01966268991      -0.002317333323       -0.01239264309     -1.107250148e-06      -0.002424420561     -1.455746233e-24 
                   0                   73           4.94454287        -0.0312434019      -0.003600270797     -0.0001505653037     -1.011258457e-18     -4.582013183e-83     -6.14456571e-164      -0.009669532571      -0.007181294514      -0.009118031632     -0.0006038125493      -0.006282559118      5.511464569e-10      -0.004385339256      4.172377033e-53 
                   1                    2          -4.90415529         0.2726288052        0.03141583393       0.001313827443      8.824205051e-18       3.99824828e-82     5.361726015e-163        0.08469767059        0.06235361025        0.08011967129       0.005009201981        0.05590625503      1.791458017e-08          0.028879512      1.926489709e-53 
                   1                    1          14.98746736      -0.003403331776     -0.0003921761159     -1.640102073e-05     -1.101559956e-19     -4.991169372e-84    -6.693251841e-165     -0.0009420059936     -0.0006946627962     -0.0008841136358     -6.340314593e-05     -0.0006088217417     -3.122388365e-10     -0.0004803391902      -1.36777411e-54 
                   0                   74           6.37798953       -0.01115541612      -0.001142535698      -2.75625453e-05     -1.784222169e-21     -1.391540188e-93    -7.285106772e-184      -0.002242456161        -0.0016763371      -0.002144560392     -0.0001069506268      -0.001561376603     -1.372559837e-10     -0.0005034253121     -3.827467809e-51 
                   1                    3          -4.92432808         0.0319211346       0.003269356822       7.88700044e-05       5.10553756e-21      3.981881193e-93     2.084627515e-183       0.006417285048       0.004801272974       0.006137438345      0.0003057336341       0.004466242172       4.22123217e-10       0.001429072725      4.815396115e-51 
                   1                    1           14.9839148     -0.0003785540797     -3.877144025e-05     -9.353227039e-07     -6.054678496e-23     -4.722129677e-95    -2.472168549e-185     -7.477945878e-05      -5.63918766e-05     -7.144309254e-05     -3.644926999e-06     -5.146647068e-05     -4.581846653e-12     -1.381341385e-05     -1.831497762e-52 
                   0                   75           7.00265191        -0.2847452356       -0.03925704707      -0.003421846453     -8.937991501e-15     -2.498457107e-68    -8.912123954e-136        -0.1578433227        -0.1268669115        -0.1474816844       -0.01136805998         -0.097740288     -1.917081747e-06       -0.03465583867     -1.095736929e-31 
                   1                    4          -3.68730923         0.5020960481        0.06922260929       0.006033799223      1.576051027e-14      4.405571308e-68     1.571489759e-135         0.2787134793         0.2008820051         0.2606340097        0.01983363906         0.1731755498      3.602572616e-06        0.07351162357      3.454019736e-32 
                   1                    1          15.07435571       -0.01682173354      -0.002319166409     -0.0002021504913     -5.280246784e-16     -1.475999402e-69    -5.264965159e-137      -0.009260532969      -0.003557126982      -0.008698048524     -0.0006169918144      -0.005819477906      -1.08676593e-07     -0.0005455843546     -6.650927667e-33 
                   0                   42          -0.01144895         0.7091767466         0.1220831632        0.02302895094       3.74652031e-11      1.123147344e-52     4.151769392e-105         0.7259556469         0.5857264477         0.6452163636        0.08940827587         0.3649250924       0.001466942284         0.1188280681      1.075826817e-06 
                   1                    1          -1.30775736         0.4123213341        0.07098017947        0.01338922606      2.178258467e-11      6.530073264e-53     2.413873696e-105         0.4219379616         0.3049309871         0.3767594694        0.05015270086         0.2226616962      0.0009964261208         0.1434585445      8.099870463e-08 
                   1                    1          14.91165326                   -0                   -0                   -0                   -0                   -0                   -0       0.007572219076       -0.01803659365       0.008439828955     -0.0009469566966        0.01358735845      6.734933555e-06        0.03128377264     -4.333696217e-08 
                   0                   45          -1.51734849          0.174813031        0.01928959034      0.0006636588145       9.07300764e-19      7.295595814e-86     3.933592198e-170        0.04702628363        0.03448177539        0.04469007507       0.002554970452        0.03179537471       6.10239983e-09        0.01623925409      8.181512195e-56 
                   1                    4          -1.21050923        0.07214427816          0.007960697      0.0002738879697      3.744375253e-19      3.010848167e-86     1.623369655e-170        0.01941619843        0.01425135891        0.01845498749       0.001051049728        0.01312349407      3.206990777e-09       0.006327865966      2.113246046e-54 
                   1                    1          15.07435571      -0.004932882934     -0.0005443146342     -1.872715794e-05     -2.560225877e-20     -2.058674911e-87    -1.109983033e-171      -0.001318779191     -0.0009499467434      -0.001252054635     -7.298708066e-05     -0.0008942843257     -1.726403695e-10     -0.0005423403223     -2.308663242e-57 
                   0                   34           4.24855125                   -0                   -0                   -0                   -0                   -0                   -0        0.02151017544         -0.126331468        0.02783612279       -0.02822880883         0.3866642714        -0.1381915138         0.5939679555       -0.01015063989 
                   1                    1          -1.30775736         0.5572350607         0.2433932895         0.3048959963       0.007813167168      8.180428237e-13      7.761829956e-26          3.229377136          3.261168423          1.997102705          1.589428623         0.5243703211         0.4299658986        0.03476713191         0.1503005847 
                   1                    1          14.91165326                   -0                   -0                   -0                   -0                   -0                   -0        0.09800019399        0.04767869924         0.1135647111       -0.02154405261         0.1444626836       -0.01999732811        0.07386965136      -0.001181293212 
                   0                   35           0.68454267         0.5509905925        0.09058078848        0.01472506403      6.822719853e-12      8.825315447e-56     3.633146013e-111         0.5009047617         0.4033969391         0.4476025873        0.05868467339         0.2463859211      3.465671061e-05        0.06961778448     -8.090516554e-23 
                   1                    2          -2.42735529         0.5559979393        0.09140397754        0.01485888392      6.884724042e-12      8.905519023e-56     3.666163677e-111         0.5065015693         0.4109418844         0.4539516946        0.05787553214          0.257375146      2.876387432e-05        0.02216773092      3.545602808e-22 
                   1                    1          14.98746736       -0.01172075065      -0.001926847481      -0.000313233667      -1.45133872e-13     -1.877333718e-57    -7.728480136e-113      -0.007326155397       -0.00767480547      -0.005868192524      -0.001605255323      0.0002120244135     -6.464400435e-07       0.008682185749     -1.387224637e-23 
                   0                   36           2.11798933         0.4617552434         0.1021793711         0.0392687033      2.879013234e-08      3.247366792e-38      3.454217267e-76         0.8413454407         0.7569659827         0.7003898342         0.1634413393         0.3003225203        0.01849790493        0.05241001152        0.01928031464 
                   1                    3          -2.44752808         0.7838169253         0.1734466942        0.06665755227      4.887046401e-08      5.512316514e-38      5.863439551e-76          1.433587325            1.1727197          1.191686822         0.2769447469         0.5270401711         0.0310190201         0.2477880704         0.0220842674 
                   1                    1           14.9839148       -0.01566119467      -0.003465582785       -0.00133186318     -9.764650724e-10     -1.101398289e-39     -1.171555057e-77       -0.01425867104       -0.08858716514       -0.01067540201      -0.006191478548        0.00617202538     -0.0009319305123         0.1037554663      -0.006674033985 
                   0                   37           2.74265171         0.3561123031         0.1333649874         0.1389334959      0.0006805755816      4.862357994e-17      5.100682207e-34          1.662215342          1.564264385          1.116033321          0.689768681         0.2289091314         0.2225583053         0.1030520907         0.2381199612 
                   1                    4          -1.21050923         0.5627119701         0.2107371022         0.2195361982       0.001075413635      7.683270198e-17      8.059858949e-34          2.686951052          2.609657116          1.761145941          1.097129402         0.4635454351         0.3077715237       -0.00809851695        0.02835955476 
                   1                    1          15.07435571       -0.03847557069       -0.01440920169       -0.01501084207     -7.353167432e-05     -5.253455077e-18     -5.510948571e-35        -0.1375608954       -0.04398820095        -0.1280239946       -0.05933330388        -0.1141342058       -0.05639282256        -0.1816793593        -0.2326318024 
                   0                   38           8.50855145        -0.7091767466        -0.1220831632       -0.02302895094      -3.74652031e-11     -1.123147344e-52    -4.151769392e-105        -0.7263436654        -0.5760112302        -0.6510941832       -0.08341544773        -0.3859601027      -0.001584880296        -0.1698666532     -7.422674062e-06 
                   1                    1          -1.30775736         0.4123213341        0.07098017947        0.01338922606      2.178258467e-11      6.530073264e-53     2.413873696e-105         0.4236713107         0.3151656547         0.3773535473        0.05123533146         0.2117831599      0.0007780534029        0.07916277507      7.816837007e-06 
                   1                    1          14.91165326                   -0                   -0                   -0                   -0                   -0                   -0       0.007443211189         -0.019339368       0.008184023824     -0.0008013412553        0.01412807671      2.159057264e-05        0.03976921778     -7.319323914e-07 
                   0                   39           4.94454287        -0.1648396133       -0.04421462611       -0.02631933564     -8.912790764e-07     -2.004307133e-29     -2.813112437e-58        -0.4420221836        -0.3630457862        -0.3356150207        -0.1223888116       -0.07744931461       -0.02330132038        -0.4064179269      -0.003524219927 
                   1                    2          -2.42735529         0.8517758361         0.2284702649         0.1359999194      4.605506925e-06      1.035685749e-28      1.453619764e-57           2.30869127          2.014444016          1.794499502         0.5891334724         0.8634796597        0.06034650379        0.08798333333       0.005758902055 
                   1                    1          14.98746736        -0.0179559158       -0.00481628225      -0.002866955128     -9.708668766e-08     -2.183284066e-30     -3.064312579e-59       -0.02730214402       -0.02069160431       -0.01800080921        -0.0110808673      -0.005801964859      -0.003070720826       -0.04888131751     -0.0003838925905 
                   0                   40           6.37798953        -0.4615744305        -0.1021598305       -0.03928095123     -2.892541065e-08     -3.325734173e-38     -3.623270102e-76        -0.8491960273        -0.7241913023        -0.7086765017        -0.1584427817        -0.3907033642      -0.005602235683        -0.1000163749     -3.712883958e-07 
                   1                    3          -2.44752808         0.7839234347         0.1735050296        0.06671352695      4.912600389e-08      5.648321881e-38      6.153647507e-76          1.446129755           1.15005401          1.210473929          0.265874364         0.6810882759       0.009990818777          0.300769544      7.084837773e-07 
                   1                    1           14.9839148       -0.01566332281      -0.003466748368      -0.001332981592     -9.815709327e-10     -1.128573085e-39     -1.229540578e-77       -0.01655491602        -0.1084299454       -0.01224344611      -0.004915334195        0.00565465618     -0.0006303761912         0.1046189335     -1.260034993e-08 
                   0                   41           7.00265191        -0.6535685707        -0.1766493429        -0.1067993609     -4.147904382e-06     -1.702947935e-28     -5.070766872e-57         -1.800759755         -1.569159124         -1.401348058        -0.4576692726        -0.7313617446       -0.04109250397        0.02034281274      -0.004111989518 
                   1                    4          -1.21050923         0.5646853571         0.1526256031        0.09227499296       3.58380279e-06      1.471352519e-28      4.381158963e-57          1.556725135          1.345368074          1.208678383         0.3998340221         0.5457179762        0.05143304784         0.2698743744       0.006209380948 
                   1                    1          15.07435571       -0.03861050151       -0.01043581351      -0.006309325557     -2.450434057e-07     -1.006040938e-29     -2.995628321e-58        -0.1030907629       -0.08212523483       -0.08540916497       -0.02116265237       -0.05677342351      -0.006389614311       -0.04313455479      -0.001285869387 
                   0                   46           9.20454307        -0.2165341699       -0.02486282728      -0.001023467893      -6.04683027e-18     -1.633963763e-82    -1.155444504e-163       -0.06690583382       -0.04946309905       -0.06342327664      -0.003809708592        -0.0446629042     -1.348695178e-08       -0.02088537479     -1.574405899e-53 
                   1                    2          -2.42735529         0.1571316234        0.01804212432      0.0007426965068      4.387983003e-18      1.185712993e-82     8.384675304e-164        0.04850076523        0.03586778663        0.04595226316         0.0027883936        0.03232066216      7.097029826e-09        0.01626176073     -1.124832441e-53 
                   1                    1          14.98746736      -0.003312423386     -0.0003803381729     -1.565646192e-05      -9.25011605e-20     -2.499549971e-84     -1.76753692e-165     -0.0008944977199      -0.000852783299     -0.0008288473311     -7.177427713e-05     -0.0004508655849     -2.496604491e-10      0.0004122050902     -5.529149958e-55 
                   0                    8          -0.01144895         0.9092325462         0.1968793749        0.07160755061      3.252824998e-08      4.514180833e-39      3.503902196e-78          1.597030291          1.321440103          1.336606745         0.2933318865         0.7390512123       0.008557144671         0.2157048515       4.50276624e-07 
                   1                    1           1.16904264                   -0                   -0                   -0                   -0                   -0                   -0     -0.0004407915431       -0.01880166307      0.0001317552105     -0.0004931434867       0.004342609848      0.0009465504858        0.08322139035     -6.753036353e-08 
                   1                    1          14.91165326                   -0                   -0                   -0                   -0                   -0                   -0         0.0202309403       -0.02708289841        0.02323461119      -0.003307055825        0.04890483957     -0.0002245740112         0.1951378959      4.281425162e-09 
                   0                   10          -2.14201087       0.006113943131      0.0006182431077        1.3995433e-05      4.940040643e-22      3.653575583e-95     1.354836306e-186       0.001176823205      0.0008776248781       0.001125463282      5.610223813e-05      0.0008174155933      5.201758033e-11      0.0002817318088      1.046566519e-54 
                   1                    3           0.02927192       0.001090435119      0.0001102650094      2.496116061e-06      8.810670446e-23      6.516231898e-96      2.41638016e-187      0.0002098821179       0.000156583887      0.0002007208113      1.000725387e-05      0.0001457449984      9.354370999e-12      5.007681366e-05      1.033565956e-55 
                   1                    1           14.9839148     -6.913365958e-05      -6.99080898e-06     -1.582539255e-07     -5.585970965e-24     -4.131295388e-97     -1.53198664e-188     -1.326132863e-05     -9.906873462e-06     -1.267850049e-05     -6.366359214e-07     -9.177812778e-06     -5.852118588e-13      -3.09326117e-06     -1.610295944e-56 
                   0                   11          -1.51734849         0.4821098978        0.06246381065        0.00427376587      1.545853507e-15      1.001317252e-72     1.051560972e-144         0.2220951567         0.1662465943         0.2088424579          0.014517545         0.1402091076      1.203533221e-06        0.05342882805      2.178509198e-33 
                   1                    4           1.26629077      -0.008131304416      -0.001053519668     -7.208167982e-05     -2.607248992e-17     -1.688829753e-74    -1.773571215e-146      -0.003736558395      -0.001588209326      -0.003513450208     -0.0002438844289      -0.002334064739     -4.919634222e-08     -4.026147288e-05      1.806792437e-33 
                   1                    1          15.07435571       -0.01360420144      -0.001762606963     -0.0001205973411     -4.362097233e-17     -2.825522079e-74    -2.967300059e-146      -0.006166386327      -0.002751700677      -0.005785398821     -0.0004172755461      -0.003689813393     -3.434887529e-08       0.001104191621     -6.147328254e-35 
                   0                    1           0.68454267         0.8375819389           0.21872737         0.1231641382      2.556320918e-06      6.698523948e-30      6.407469726e-60          2.154301752          1.859020137          1.680848403         0.5398821535         0.7933759174        0.04499772309         0.2667800893       0.002413048376 
                   1                    2           0.04944471         0.2631180548        0.06871103286        0.03869079188      8.030428503e-07      2.104274829e-30      2.012843034e-60         0.6795008192         0.6142060203         0.5335563383         0.1665236889         0.3071800486       0.006269670329        -0.2868260207     -2.503208878e-05 
                   1                    1          14.98746736       -0.01781716274      -0.004652799882      -0.002619965155     -5.437842401e-08      -1.42491959e-31      -1.36300612e-61       -0.02504310427       -0.03273839479       -0.01253884172       -0.01428868354        0.02723270664      -0.001864623807        0.02292988714     -0.0001896048279 
                   0                    2           2.11798933          0.473740061         0.2128181934         0.2745375944       0.009161861139      3.072557096e-12      1.248781345e-24          2.916367562          2.931652666          1.707643243          1.468998961         0.2774040089         0.4203244613        -0.2222676067         0.1551114646 
                   1                    3           0.02927192         0.2534331649         0.1138497517         0.1468673164       0.004901252092       1.64370281e-12      6.680511837e-25          1.603788667          1.497935879          0.921559393          0.776581141         0.5361080496        0.07886750542         0.4709187462       -0.03107375122 
                   1                    1           14.9839148       -0.01606767963      -0.007218081883      -0.009311397698      -0.000310739711     -1.042108682e-13      -4.23544898e-26       -0.01155621829       -0.01286221317       0.008070426775        -0.0574494954        0.07375673621       -0.04716191487       -0.08714823779       -0.09028037498 
                   0                    3           2.74265171         0.2436538754         0.1825238714         0.3359476338         0.2781990858       0.000132114441      2.612209001e-09          2.831303724          3.129806381         0.9682187459          2.240024826       -0.03808570514         0.6244433556        -0.1178267487        0.04268463664 
                   1                    4           1.26629077       -0.01573470415       -0.01178704469       -0.02169485965       -0.01796556818     -8.531699485e-06     -1.686914922e-10        -0.1877378725        -0.1712989556       -0.07887698193        -0.1289853811       -0.01767201454         0.1482490949        -0.1100502051        -0.2568448932 
                   1                    1          15.07435571         -0.026325184       -0.01972049281       -0.03629691201        -0.0300575647     -1.427408845e-05     -2.822318443e-10        -0.1935229735        -0.1176330211        -0.1535292756         -0.175574929        -0.5287380901        -0.3437159409        -0.6583548097        -0.4912132902 
                   0                    4           8.50855145        -0.9092325462        -0.1968793749       -0.07160755061     -3.252824998e-08     -4.514180833e-39     -3.503902196e-78         -1.592767666         -1.332981174         -1.339403726         -0.289138739        -0.6005145853       -0.03058111797        -0.2238817116       -0.02092953009 
                   1                    1           1.16904264                   -0                   -0                   -0                   -0                   -0                   -0      0.0003174035917       -0.03087221851      -0.002057634833       0.001767038599      -0.009552206828      -0.000264286027        0.06915701448      -0.003990171168 
                   1                    1          14.91165326                   -0                   -0                   -0                   -0                   -0                   -0        0.02106238001        -0.0461448799        0.02222869175      -0.002588147782        0.03508272634     -0.0003651966548          0.140149799      -0.006675709939 
                   0                    5           4.94454287        -0.1002036022       -0.08690579632        -0.1691597829        -0.2327433056      -0.001038813667     -3.378110068e-07         -1.337135955         -1.447874205        -0.3524408566          -1.20873826         0.1632644461        -0.3011995499         0.1316822725        -0.1825565339 
                   1                    2           0.04944471         0.1611912304         0.1397998868         0.2721166999         0.3743995124       0.001671074188      5.434153128e-07          2.195539554          2.564178409          0.635121125          1.889345814       -0.03059372713         0.6095035047       -0.03225496139        0.05249025822 
                   1                    1          14.98746736       -0.01091513992      -0.009466615033       -0.01842651022       -0.02535263893      -0.000113157574     -3.679762329e-08         0.1043821074         0.2333772652        0.05448843435        -0.1358570217        -0.2388461696         -0.286262019        -0.3755503629        -0.6202289248 
                   0                    6           6.37798953        -0.4733936942        -0.2127630221        -0.2745989697      -0.009203814593     -3.146312301e-12     -1.309733033e-24         -2.927832349         -2.809904837         -1.751457237          -1.42288941        -0.6761319957        -0.3347442134        -0.2895510906        -0.1505922379 
                   1                    3           0.02927192         0.2533815029         0.1138802966         0.1469776646       0.004926293701       1.68404723e-12      7.010277666e-25          1.579924495          1.700539162         0.9271748178         0.7801419727        -0.0965852775         0.3450184551          -0.49276927        -0.0100351363 
                   1                    1           14.9839148       -0.01606440426      -0.007220018433      -0.009318393785     -0.0003123273506     -1.067687072e-13     -4.444520736e-26      -0.006583360806       -0.01536930692      -0.002630580174       -0.04758270184        0.04517760094       -0.07837368714       -0.01834825835       -0.09664445517 
                   0                    7           7.00265191        -0.6470274483        -0.2486798949        -0.2680291024      -0.001780773817     -4.870105044e-16     -2.734097835e-32         -3.205551023         -3.088580623         -2.099884211         -1.326581403        -0.5141119987        -0.3931071832       -0.02802836674       -0.09191089528 
                   1                    4           1.26629077       -0.02284673553      -0.008780962548      -0.009464188935     -6.287966384e-05     -1.719648869e-17      -9.65418242e-34       -0.09533137899       -0.05028888285       -0.08587957168       -0.03514158406       -0.05408767354       -0.03701373417        -0.1199397517        -0.1506185943 
                   1                    1          15.07435571       -0.03822407532       -0.01469112177       -0.01583420398     -0.0001052017696     -2.877084465e-17     -1.615207544e-33        -0.1471166833       -0.06991394486         -0.135567872       -0.05891676004        -0.1091058714       -0.08029057132        -0.2353794713        -0.2564507481 
                   0                   12           9.20454307        -0.7583062865        -0.1239209464       -0.01975210619     -7.754419752e-12     -4.895157889e-56    -8.228334233e-112        -0.6828379735        -0.5518816804        -0.6131967004       -0.07666324303        -0.3448103793      -3.26198586e-05       -0.05293824047     -2.063181923e-24 
                   1                    2           0.04944471         0.1713074152        0.02799472642       0.004462157728      1.751785035e-12      1.105855062e-56     1.858846082e-112         0.1539830661         0.1237556711         0.1371469307        0.01852176423        0.07113225875       9.39579887e-06        0.03192408428     -2.632815227e-24 