ITEM: TIMESTEP
0
ITEM: NUMBER OF ENTRIES
3678
ITEM: BOX BOUNDS pp pp pp
0 8.52
0 7.37854
0 30
ITEM: ENTRIES c_2[1] c_2[2] c_2[3] c_2[4] c_2[5] c_2[6] c_2[7] c_2[8] c_2[9] c_2[10] c_2[11] c_2[12] c_2[13] c_2[14] c_2[15] c_2[16] c_2[17] 
                   0                  122           0.67589648      0.0007031093477      7.096711046e-05      1.591658007e-06      5.125179429e-23      2.569904999e-96     6.058029857e-188      0.0001370864284      0.0001018369067      0.0001313574145      6.257589534e-06      9.647884372e-05      6.827918293e-12      3.360916432e-05      1.477252185e-56 
                   4                   10          -4.84892117       0.002073114956      0.0002092462268      4.692996942e-06         1.511157e-22      7.577354085e-96     1.786207556e-187      0.0004042153818       0.000300271057      0.0003873228854      1.845106666e-05      0.0002844659469      2.015072504e-11      9.909502606e-05      4.000587008e-56 
                   1                    1          14.98230138     -2.267315723e-05     -2.288475411e-06     -5.132617332e-08     -1.652715888e-24     -8.287169027e-98    -1.953532034e-189     -4.413109787e-06     -3.283692601e-06     -4.227895286e-06      -2.02301733e-07     -3.099384181e-06     -2.204344899e-13     -1.062010934e-06     -4.758369726e-58 
                   0                  123           2.13460745        0.01620124774       0.001763887694      5.703780349e-05      4.671981138e-20      5.112295891e-88     2.386625577e-173       0.004131085706       0.003059421903       0.003925207904      0.0002252199848       0.002806286619      2.742285284e-11       0.001694759067     -3.745415526e-56 
                   4                   11           -4.9435816         0.1611764742        0.01754785828      0.0005674348178      4.647873172e-19       5.08591585e-87     2.374310311e-172        0.04144622456        0.03008883179        0.03945724143       0.002174801614        0.02843834916      3.833437786e-09        0.01473180085      2.383144398e-56 
                   1                    1          14.90684443       0.000210734685      2.294343766e-05      7.419085087e-07      6.076991656e-22      6.649722795e-90     3.104358363e-175      0.0001382356378     -5.780849171e-05      0.0001415953375     -3.643326468e-06      0.0001805639034     -1.686005801e-11      0.0005549133386     -2.026033078e-57 
                   0                  124           2.76931085      -0.001044448369     -0.0001718980665     -2.804859248e-05     -1.341037958e-14     -1.987163893e-58    -9.693473943e-114      -0.001976814249         0.0107227757      -0.003420527475       0.001525352789       -0.01354919749     -6.813970699e-05       -0.04803243513      3.293484277e-06 
                   4                   12          -3.75602284         0.7837350093         0.1289891743        0.02104715229      1.006290428e-11      1.491131547e-55     7.273806072e-111         0.7136090424         0.5531532751         0.6429089951        0.07840528773         0.3878456778       0.002235425505         0.1682228935      6.636551661e-06 
                   1                    1          15.00449159       -0.01386024109      -0.002281155023     -0.0003722158657     -1.779610171e-13     -2.637044726e-57    -1.286362158e-112      -0.008983125815       -0.03149632151      -0.007391514401      -0.001758714999      0.0004674999322     -3.886693789e-05        0.03365186643     -1.797774271e-07 
                   0                  173          -0.02644096          0.653515199         0.1691115588        0.09340585797      1.635847973e-06      2.033681694e-30       7.66261762e-61          1.644673542          1.448430372          1.295173025          0.398378304         0.6674519362         0.0254171306        -0.1367888862       0.001799732157 
                   4                   17          -1.21858077         0.5909975042          0.152933718        0.08447030616      1.479356671e-06      1.839132139e-30      6.929583116e-61          1.487637763          1.251556045          1.163627365         0.3684187365         0.5020000613        0.02988138981         0.4645794977        0.00291543273 
                   1                    1          15.00248699       -0.02049685074       -0.00530401494      -0.002929581335     -5.130673592e-08     -6.378439277e-32     -2.403303395e-62        -0.0363546637       -0.03600737526       -0.02581770991       -0.01209622782      -0.003256624198      -0.001697231183        0.01301748487     -0.0002669773409 
                   0                  176          -2.19061694          0.186537941        0.02103740511      0.0007992733238       2.46083919e-18      4.887689021e-84     1.370597075e-166        0.05599548367        0.04081114796        0.05315744386       0.003103965803        0.03759007143      4.216335085e-08        0.02058682522      2.312392762e-30 
                   4                   23          -2.38581485         0.1389449049        0.01566995024       0.000595347817      1.832984032e-18      3.640650703e-84     1.020904805e-166        0.04166938224        0.03006602838        0.03953764024       0.002331940002        0.02794343337      3.996454301e-08        0.01558075299       1.83863673e-30 
                   1                    1          14.92211061     -0.0002673158687     -3.014739089e-05     -1.145388663e-06     -3.526474895e-21     -7.004241761e-87    -1.964117036e-169      7.200275792e-05     -0.0002658580802      8.450303111e-05      -1.36535431e-05      0.0001715873535     -1.733062656e-10      0.0008289987782     -3.972827349e-33 
                   0                  177            -1.335934         0.7221259876         0.1293975329        0.02765165706      1.297445978e-10      3.881077672e-50     4.500948982e-100          0.824455328         0.6158213601         0.7290243823         0.1060525817         0.4143121945       0.002298194041         0.2277410738      9.906379006e-08 
                   4                   24          -1.20848987         0.4426155507        0.07931214394        0.01694864002      7.952487182e-11      2.378844358e-50     2.758784542e-100         0.5049290859         0.4497262636         0.4429896655         0.0686484732         0.2371506536        0.00128384437        0.02831957876      2.763908593e-07 
                   1                    1          15.07038771       -0.02737596988      -0.004905491594       -0.00104828097     -4.918648908e-12      -1.47132588e-51    -1.706320585e-101       -0.03095161656       -0.01755556464       -0.02761586062      -0.003704354344       -0.01779545615     -7.126168549e-05       -0.01508187839     -3.180026567e-08 
                   0                  131           0.64866016         0.4807502978         0.2042701764         0.2483036916       0.004855121452      1.543505356e-13      3.302268356e-27          2.733583773          2.633304045          1.649947212          1.271480307         0.6260609901         0.2299213053         0.3380222856        0.05590642168 
                   4                    2          -0.09588281         0.3182787708         0.1352362359         0.1643884447       0.003214313325      1.021871416e-13      2.186253276e-27          1.774976445           1.78762184          1.080613287         0.8585127475      -0.002255187684         0.2578986628        -0.4175353196         0.1272365599 
                   1                    1          14.98720426       -0.01641803071        -0.0069759999      -0.008479781816     -0.0001658065184     -5.271201797e-15     -1.127752672e-28       -0.02522084351       -0.06199912657       -0.01632286881        -0.0397615162       0.004751651862       -0.03208246042        -0.0176555329       -0.06346583975 
                   0                  132           2.16669986        0.09530847257        0.07246953821         0.1342412286          0.117807461      7.227387753e-05      1.968009046e-09          1.085854669          1.210053778         0.3169277418          0.921765729        0.04955530597         0.5586477749         0.1113254134        -0.3476198665 
                   4                    3          -0.06739554         0.2192926461         0.1667431695          0.308871955         0.2710599504      0.0001662929792      4.528137947e-09          2.526722929          2.811706269         0.8464961162          2.046419059       -0.02870834027          0.501582002        -0.1148384891         0.2924658112 
                   1                    1           14.9850967       -0.01120988964      -0.008523644372       -0.01578904077       -0.01385615152     -8.500631365e-06      -2.31471176e-10        0.00655520876       -0.02544153033        0.03192590536        -0.1068961419       -0.04050982616        -0.1745386882        -0.2731941933        -0.2873822823 
                   0                  133           0.03796483         0.2764429338        0.03787859235       0.003225174253      6.951044772e-15      8.576749421e-69     1.103404689e-136         0.1525761163         0.1146313133         0.1429596108        0.01056394503        0.09674725347       2.47522935e-05         0.0419800519      1.007354804e-15 
                   4                    9          -3.58979965         0.4964949076        0.06803041752       0.005792452607      1.248416186e-14       1.54039474e-68     1.981728386e-136         0.2755061994         0.2070895354         0.2580658734        0.01915907818         0.1733157671      4.970070773e-05        0.05953764232         8.691085e-16 
                   1                    1           15.0898322       -0.01773750648       -0.00243041762      -0.000206938005      -4.46002363e-16     -5.503130298e-70    -7.079814829e-138      -0.009697550562      -0.001565599014        -0.0090924695     -0.0006644105037      -0.006202055372     -1.544285651e-06      -0.004162648214     -4.447285171e-17 
                   0                  134           4.23768516        -0.2157185646       -0.03438414003      -0.005042300626      -9.83174881e-13     -3.008622855e-58     -1.15546371e-115        -0.1804044047        -0.1465222064        -0.1635724016       -0.01857440752       -0.09784488521      -0.000246057621       0.008135600473     -6.714768384e-05 
                   4                   13          -3.63563733         0.7223086244         0.1151313098        0.01688355954      3.292047197e-12      1.007402511e-57     3.868936384e-115         0.6019982887         0.4865191782         0.5429066656        0.06513606981         0.3006604351      0.0007446387535        0.04858839194      0.0002558010206 
                   1                    1          14.98227022      -0.009835650982      -0.001567738972     -0.0002299028329      -4.48276902e-14     -1.371776434e-59    -5.268316985e-117      -0.004527635842      -0.005145831576      -0.003352616659      -0.001292423652       0.002147316206     -9.412111005e-06       0.005378608189     -3.713949941e-06 
                   0                  135           0.66047707          0.450929072         0.0983236521        0.03640402649      1.930204522e-08      5.269896603e-39       9.52629239e-78         0.7975940248         0.6222012006          0.668667934         0.1455878989         0.3941964975       0.005775360122         0.2723027889       2.80856798e-06 
                   4                   18          -2.37870849         0.7899132527         0.1722380762         0.0637706122      3.381228283e-08      9.231520932e-39      1.668764574e-77          1.408336551          1.180321804          1.179816547         0.2575757066         0.6618566096       0.007882555013         0.1101728746      3.005574621e-06 
                   1                    1          14.92899103       -0.00299859568     -0.0006538342652     -0.0002420801039     -1.283550629e-10     -3.504384651e-41     -6.334809836e-80         0.0135289951       -0.01808480013        0.01654385435      -0.003323164857          0.035460487     -6.812974203e-05        0.09039647118     -9.295980105e-08 
                   0                  136           2.16668976         0.1380889092        0.03466150715        0.01792325576      1.758341503e-07      1.718052003e-32       2.69746199e-64         0.3141910787          0.251068025          0.245559107        0.07990803906        0.06427252362        0.02150303457         0.2159433982       0.002815104738 
                   4                   19          -2.49369881         0.8799913763          0.220885425         0.1142185176      1.120528339e-06      1.094853277e-31      1.718996336e-63          2.078549372          1.772396376          1.654194307         0.4867635474          0.872052743        0.05473832561         0.2369851786       0.006503942924 
                   1                    1          15.00762645       -0.02146236455      -0.005387238606      -0.002785708509     -2.732889019e-08     -2.670269368e-33     -4.192509953e-65       -0.03475003705        -0.0513586529        -0.0234100567       -0.01308922947        0.01238830982      -0.001619188104         0.1244221268     -0.0008895940612 
                   0                  137           2.74258658       0.004521960016       0.001946155769        0.00239933148      5.326571965e-05      2.963153341e-15      1.275637766e-28        -0.0130419483         0.1763596339       -0.01714284595        0.03310096478        -0.4605250617         0.1723930485        -0.6593470921        0.01611965283 
                   4                   20          -1.19890976         0.5663408517         0.2437411016         0.3004978879       0.006671123346      3.711122568e-13      1.597638582e-26          3.243560483          3.185598213          1.936669089          1.576731579         0.5964240241         0.4581345867        0.03447520814           0.12245431 
                   1                    1          15.08685175       -0.03888846101       -0.01673676955       -0.02063404108     -0.0004580805346     -2.548285981e-14     -1.097037332e-27          -0.18403907        -0.1247646883        -0.1592871149        -0.0827641933        -0.1661727007        -0.0723270399        -0.2549270746        -0.1763433017 
                   0                  138           8.49355904        -0.1589205497       -0.01740168429     -0.0005778665327     -5.898992227e-19     -1.516684817e-86    -2.016596992e-171       -0.04201786267       -0.03070053712       -0.04004177445      -0.002161225271        -0.0290629409     -2.805158099e-08       -0.01435745188     -9.838747741e-36 
                   4                   17          -1.21858077        0.06994073851       0.007658459858      0.0002543183505      2.596139225e-19      6.674911232e-87     8.875018563e-172         0.0185184802        0.01353765855        0.01765908426      0.0009397308898        0.01286445513      9.027787572e-09       0.006118103234       7.67364761e-36 
                   1                    1          15.00248699      -0.002425669935     -0.0002656090889     -8.820215369e-06     -9.003875282e-21     -2.314978629e-88    -3.078015212e-173     -0.0006107400878     -0.0004728573028     -0.0005791147632     -3.456903553e-05     -0.0003943205072     -2.877330808e-10     -7.886006795e-05     -3.122695182e-37 
                   0                  139           4.32724313        -0.3757966993        -0.1294313525        -0.1197556447     -0.0002031679253     -1.362022891e-19       -4.1798013e-39         -1.408191302         -1.369810075         -1.057377128        -0.5796182124        -0.2844770484        -0.2060581144       -0.05712249569        -0.2293510245 
                   4                   21          -1.27934757         0.6203659871         0.2136655508         0.1976928719      0.0003353900413      2.248430273e-19      6.900024839e-39          2.569879509          2.451375781          1.734948931         0.9686040489         0.4786410086         0.3134088288        0.03787103826         0.1614046936 
                   1                    1          14.97296512       -0.01391880039      -0.004793892981      -0.004435523028     -7.524956452e-06     -5.044675692e-21     -1.548119504e-40        0.02795228072        -0.1718995829       0.007275069635       -0.02772697425         0.0507920915       -0.01337929764        0.06343057282       -0.04334343017 
                   0                  140           4.95336031        -0.4566372532       -0.09589493169       -0.03220429354     -7.326621769e-09     -4.937800056e-41     -8.756526217e-82        -0.7325310268        -0.6728843411        -0.6237927049        -0.1303339613        -0.2777911725       -0.01943359642       -0.07596027184       -0.02026155667 
                   4                   22          -2.44747647         0.7818591678         0.1641923233        0.05514053435      1.254471982e-08       8.45455384e-41      1.499301744e-81           1.26031297          1.012529293          1.067173415         0.2248484781         0.4752038282        0.03313465718          0.198852593        0.02957332709 
                   1                    1          15.09676251       -0.03788301784      -0.007955525712       -0.00267169579     -6.078228206e-10     -4.096441241e-42      -7.26448919e-83       -0.05657049569        0.05033664599       -0.05217467492       -0.01042599409       -0.02826667722      -0.001828979874       -0.06273601212      -0.005686772634 
                   0                  141           6.32938306         -0.529392948       -0.08505649642       -0.01281210928     -3.127968205e-12     -2.529515826e-57    -3.268367659e-114        -0.4500042164        -0.3626243814        -0.4043356508       -0.05038639679        -0.2189911667      -0.000770715063       -0.05890935095     -0.0001804717724 
                   4                   23          -2.38581485         0.5475925991        0.08798059763        0.01325256834      3.235502562e-12      2.616476383e-57     3.380728716e-114          0.466819175         0.3781851112         0.4206136573        0.05101518248          0.238412561      0.0008522080594        0.02100249102      0.0001588226662 
                   1                    1          14.92211061       -0.00105351248     -0.0001692657237     -2.549659392e-05     -6.224777933e-15     -5.033834509e-60    -6.504178287e-117       0.004176572986       0.001341043774       0.004755205836      -0.000635564369       0.007524227674     -2.324037755e-06       0.009393584937       4.08289571e-08 
                   0                  142             7.184066        -0.6740298037        -0.1099168593       -0.01739818792     -6.441197696e-12     -3.154503161e-56    -3.862037878e-112        -0.5986283953        -0.4590626896        -0.5382725066       -0.06685050045        -0.3193637138      -0.001607664328        -0.1195128962     -2.259392343e-06 
                   4                   24          -1.20848987         0.3829556936        0.06245018671        0.00988492658      3.659620565e-12      1.792257463e-56     2.194249255e-112         0.3400954994         0.2498514688         0.3073531687        0.03635461916          0.194817628      0.0009818914991         0.1052148804      6.772654582e-08 
                   1                    1          15.07038771       -0.02368598101      -0.003862571994     -0.0006113871324     -2.263491696e-13     -1.108519261e-57    -1.357152983e-113       -0.02080279983       -0.07496020742       -0.01882080614      -0.002198846003       -0.01179726735     -5.578430683e-05     -1.292850951e-05     -1.012169432e-07 
                   0                   46          -0.09987266         0.6799165632         0.2496670101         0.2532479047      0.0009771500817       2.44034691e-17      6.883277365e-35          3.103204688          2.974281206          2.073027381          1.233546186         0.5044111195         0.3373718182        0.06138445448         0.1234048664 
                   4                    1           1.17574914        0.03037351937        0.01115322994        0.01131319717      4.365166042e-05       1.09016206e-18      3.074926685e-36        0.09851954388       -0.04952623938        0.08773282323        0.04932469248      -0.008909302085         0.0368431762        0.01745284745         0.2077428459 
                   1                    1           15.0111458       -0.02283457436      -0.008384911054      -0.008505173169     -3.281697697e-05     -8.195753125e-19     -2.311705837e-36        -0.0596774465         0.1381249083       -0.05695125962       -0.03093787504        -0.0358778639       -0.03390343252        -0.0898205281        -0.1437433335 
                   0                   48          -3.49004139        0.08430960145       0.008849443907      0.0002406561655      4.550814667e-20      1.899591023e-90     1.041404864e-178        0.01914879392        0.01425013883        0.01823115524       0.001003406804        0.01303505082       5.41896318e-09       0.004847512169      6.964703109e-46 
                   4                    6           0.01843858         0.0173292836       0.001818944942      4.946529067e-05      9.353899985e-21      3.904484305e-91     2.140539146e-179       0.003927149968       0.002916335059       0.003737445807      0.0002074181797       0.002665763544      7.657790579e-10        0.00120148042      5.235703104e-46 
                   1                    1          15.03734366      -0.001649501786     -0.0001731377361     -4.708393444e-06      -8.90358487e-22     -3.716514763e-92    -2.037489388e-180     -0.0003710809983      -0.000268345516     -0.0003531778346     -1.957593053e-05     -0.0002515957165     -9.174806548e-11     -9.778398131e-05     -3.973303389e-47 
                   0                   49          -2.07384639         0.7778244023         0.1309527232        0.02300566199      2.050551439e-11      4.517110231e-54     6.409012455e-108         0.7589923085         0.6181438806         0.6745505422        0.09303592752         0.3676872467       6.64044593e-05        0.05391509843      4.834715329e-23 
                   4                    7           0.06145189         0.1997739613        0.03363348355       0.005908701518      5.266571509e-12      1.160160316e-54     1.646070504e-108         0.1921006377         0.1521706643         0.1690707087        0.02536944952        0.08563888203      1.641621951e-05        0.07472120717     -6.866286141e-23 
                   1                    1          14.90088815       0.002271573688      0.0003824369091      6.718618789e-05      5.988470764e-14      1.319185759e-56     1.871700607e-110       0.008674384766       0.004178702296       0.008894305958     -0.0002383612705        0.01116057302      1.370719136e-07        0.01456304767     -2.989096596e-24 
                   0                   50          -1.44655724         0.9092601154         0.2002452855        0.07603571569      5.020564006e-08      3.581065731e-38      2.148713139e-76          1.644375352          1.356409116          1.366352817         0.3160667687         0.5918535531        0.02931783334         0.2494848667        0.01916556253 
                   4                    8           1.17495297        0.02779508126       0.006121278045       0.002324328166      1.534731175e-09      1.094692391e-39      6.568379642e-78        0.04237550627         0.1622623098        0.03517393912       0.009400069513       0.007300039713       0.001196849773       -0.03917221405       0.006846861192 
                   1                    1          14.98787639       -0.01574013952      -0.003466432408      -0.001316249061     -8.691063929e-10     -6.199158334e-40     -3.719622584e-78       -0.01869638568        -0.1597118209       -0.01491553154      -0.005065862326     -0.0009680323631     -0.0007058112216        0.03470927511      -0.004254223321 
                   0                   51          -3.60439404       0.009690566762      0.0009815668105      2.240879964e-05      8.592205352e-22      8.916269753e-95     4.852087753e-186       0.001867243271       0.001394135001       0.001782440784      9.265053568e-05       0.001275561027      2.128295313e-10       0.000359267565      1.005940771e-46 
                   4                   14           2.54469649      -0.001888926263     -0.0001913311546     -4.368018012e-06     -1.674829011e-22     -1.737997015e-95    -9.457894687e-187     -0.0003641193209     -0.0002721010293     -0.0003475735921     -1.807690802e-05     -0.0002487359379     -4.109008149e-11     -7.131598323e-05     -1.498085304e-47 
                   1                    1          14.96289574      -7.28786551e-05      -7.38194894e-06     -1.685271068e-07     -6.461834336e-24     -6.705549469e-97    -3.649050035e-188      -1.39211506e-05     -1.031955707e-05      -1.32782976e-05     -7.023306421e-07     -9.432166098e-06     -1.515494622e-12     -2.604459082e-06     -9.328761556e-49 
                   0                   52          -2.08675308         0.7864479059         0.1331030654        0.02378285515      2.445914297e-11      1.002141451e-53       3.0859462e-107         0.7684453677         0.6285948818         0.6818497088        0.09543696564         0.3652555685      5.472103684e-05        0.04184385412      1.463925852e-22 
                   4                   15           2.42749226        -0.1822659156        -0.0308477547      -0.005511876676     -5.668612065e-12     -2.322547085e-54    -7.151939822e-108        -0.1802944402        -0.1467110014         -0.158628466       -0.02386568221       -0.07991182728     -9.251472516e-06       -0.03028760204     -8.929743303e-24 
                   1                    1          14.90360537       0.001849974677      0.0003131005863      5.594481141e-05      5.753565465e-14      2.357354243e-56     7.259123309e-110       0.007926430489       0.004309637504       0.008091153668     -0.0001775442497        0.01035722188     -4.253932055e-08       0.008665871675      5.100049735e-25 
                   0                   53          -1.50063615         0.7328987148          0.128990703        0.02608077245      7.644336573e-11      2.956029561e-51     2.663277693e-102         0.7864287779         0.5949321443         0.6990858085        0.09680965624         0.3979999595        0.00156235296         0.1924581156      2.017502042e-05 
                   4                   16           3.64183927        -0.4019692346       -0.07074687554       -0.01430438876     -4.192650443e-11     -1.621278515e-51    -1.460714385e-102        -0.4329048641          -0.37997778        -0.3812521759       -0.05713725536        -0.2011017739      -0.000701689044       -0.03423496838     -1.698234682e-05 
                   1                    1          14.95167328      -0.006302449919      -0.001109235737     -0.0002242775965     -6.573629813e-13     -2.541992214e-53    -2.290244742e-104      -0.001651364298       -0.02985149691     -0.0007140908285      -0.001032684513       0.004353059404      3.053578193e-07        0.02610759054     -9.429311659e-07 
                   0                    1           0.67589648         0.4643390162         0.2082216219         0.2681154987       0.008800987572      2.744314483e-12      1.018387519e-24          2.853124965          2.765948813          1.716624898          1.351560986         0.6808962827         0.2941362661         0.2670136587        0.08281005686 
                   4                   10           2.52961483        -0.2728156299         -0.122337583        -0.1575273585      -0.005170892137     -1.612382027e-12     -5.983387625e-25         -1.645712218         -1.695246455        -0.9606172899        -0.8470267976         0.1384402346        -0.3313367821         0.4026425258       -0.08967785883 
                   1                    1          14.98230138       -0.01497353371      -0.006714519707      -0.008645916708     -0.0002838053222     -8.849587046e-14     -3.283992796e-26      -0.006426322155       0.002671882253       -0.02330762786       -0.03191680693       -0.03824141077       -0.05056721824       0.008074407236        -0.1032167394 
                   0                    2           2.13460745        0.08883935297        0.07869920872         0.1542498368         0.2259967621       0.001331186581       6.12265002e-07          1.447984356          1.900449126         0.3618037964          1.044390984        0.09639109589         0.4520670566        -0.1404208153        -0.1219088614 
                   4                   11            2.4349544        -0.1600528667        -0.1417843955        -0.2778963122        -0.4071554826      -0.002398264072     -1.103055858e-06          -2.00257406          -2.20783807        -0.5576680683         -1.955385564         0.1702356908        -0.5348479687           0.01195571        -0.3307774781 
                   1                    1          14.90684443       0.001155561186       0.001023665166       0.002006375761       0.002939610407      1.731515926e-05      7.963921939e-09         0.2892259335        -0.5192446991         0.2106930991       -0.06000502849         0.3291604196        -0.1150653694         0.1747874804        -0.1036243739 
                   0                    3           2.76931085        -0.0014678206     -0.0006909851912     -0.0009335219915     -4.722380117e-05     -9.908690668e-14     -3.982705281e-25       -0.03394616031         0.4901039119       -0.02368782496        0.02508722939        -0.4710984915         0.1808853622        -0.7704012406        0.05446706112 
                   4                   12           3.62251316        -0.5047958464        -0.2376356174        -0.3210460623        -0.0162406623     -3.407682037e-11     -1.369685834e-22         -3.283030216         -3.269742475         -1.907996956          -1.66640849        -0.5201592118         -0.512876223       -0.02616983607          -0.12957967 