ITEM: TIMESTEP
0
ITEM: NUMBER OF ATOMS
24
ITEM: BOX BOUNDS pp pp pp
0.0000000000000000e+00 8.5199999999999996e+00
0.0000000000000000e+00 7.3785360000000004e+00
0.0000000000000000e+00 3.0000000000000000e+01
ITEM: ATOMS id type c_1[1] c_1[2] c_1[3] c_1[4] c_1[5] c_1[6] c_1[7] c_1[8] c_1[9] c_1[10] c_1[11] c_1[12] c_1[13] c_1[14] 
1 1          14.05335658          12.68250783          6.121618273         0.3948189705      0.0003701384724      1.243806142e-07          49.13474616          43.80196837          36.62986025          14.69684177          15.57978735          2.532382166          3.330686682         0.8264015387 
2 1          14.02429769          12.65611505          6.130809454         0.3799440605      0.0003570712646      1.238633261e-07          49.02297333           43.7966947          36.45193737          14.76359054          15.37631046          2.581438709           3.19969646         0.8120692948 
3 1          14.02364377          12.65359109          6.127782896         0.3587243452      0.0001258836133      7.729628175e-09          49.06363448           43.7472598          36.45974243          14.73551411          15.48374855           2.51443077           3.30615096         0.7028623097 
4 1          14.05432388          12.69614187          6.206155493         0.3749833778      0.0001666345722       1.46835209e-08          49.79409412          44.52710134          36.87604629          15.16297292          15.55619006           2.68268925          3.254604497         0.7861827054 
5 1          14.06453752          12.70382717          6.191600926         0.3507561039      0.0001113703077      6.043412302e-09          49.75430299          44.46703178          36.96631937          15.03775754          15.62403737          2.644794252          3.300921282         0.8994034067 
6 1          14.03908081          12.66379498          6.097169124         0.3276816376      8.940538998e-05        4.2665453e-09           48.9229191          43.59482741          36.54828142          14.50453786          15.51049357           2.48052534          3.166248146         0.7540704168 
7 1          14.03119868          12.65752981          6.111390523         0.3670646342      0.0001187845708      5.482761519e-09          48.85878265          43.64800451          36.40853894          14.65045183          15.41342273            2.5610472          3.156731483         0.8030426484 
8 1          14.07671381          12.69705459          6.119344554         0.3280604429      7.049602025e-05      2.190246497e-09          49.15636764          43.74341493          36.69493126          14.62839352          15.68209124          2.502748851          3.419132284         0.8401716639 
9 1          14.08638974          12.71746265          6.166899169         0.3665692544      0.0001939524698      3.037082552e-08          49.70932453          44.29629157          36.97291497          14.90569788          15.65922022          2.524110307          3.361600474         0.7406545345 
10 1          14.09335794          12.72113354          6.167296534         0.3269891611       7.97051839e-05      3.908613698e-09          49.64698966          44.24979896          36.97904374          14.87049241          15.74481187            2.5439397          3.401526093         0.8451090856 
11 1          14.08571073          12.72619123          6.233186363         0.4539454106       0.000367452623      6.489453148e-08          50.03912094           44.8411251          36.94060608          15.40950021          15.47867162          2.794213664           3.23020589         0.8700355979 
12 1          14.09263286          12.73065459          6.212856719         0.3734220174      0.0002430941134      5.157384719e-08          50.01073567          44.67470846          37.11582378          15.17012629          15.67363033          2.661459082           3.34408736         0.9146386812 
13 1          14.08673001           12.7285734           6.22370592         0.3672020427      0.0001666897982      2.017319505e-08          50.20402125          44.89129231          37.18220176          15.23559769           15.6402703          2.642179527          3.164031519         0.7546082409 
14 1          14.09692223          12.73682948          6.246370528         0.4393065763      0.0005501185812      2.581396163e-07          50.21848851          44.98521119          37.03326182          15.46484923          15.46651109          2.829267168          3.151108397         0.7902813311 
15 1          14.08893912          12.72329914          6.199250011         0.4007530596      0.0005071508576      2.551995965e-07          49.82001811          44.52211001          36.98456577          15.11442601          15.69411081           2.63104876          3.372428552          0.903182288 
16 1          14.08302062          12.71888989          6.198299795         0.3850090961      0.0002896551204      7.461357433e-08          49.88441678          44.54269829          36.98771879          15.10863829          15.61741556          2.592429512          3.353920857          0.770862234 
17 1          14.02079498          12.65758498          6.150652887         0.3235164115      7.020467632e-05      2.609349675e-09          49.20713448          43.98363404          36.58822182          14.80993401          15.41200544          2.593827837          3.136733794         0.8103587388 
18 1           14.0458021           12.6813374          6.160347383         0.4004626776      0.0002316283855      3.267988481e-08          49.46449641          44.24811553           36.6758543          14.94668995          15.33865579          2.598631438          3.031994082         0.6508767803 
19 1          14.06105277          12.68606569          6.127441582         0.3119459882      5.343245003e-05      1.200343895e-09          49.27948834          43.86871948          36.72801946           14.6622764          15.57033981          2.466643528          3.274872543         0.6616057137 
20 1           14.0448729          12.66398428          6.079594989         0.3778392117      0.0001511429789       1.02760277e-08          48.76939493          43.43607701          36.37166802          14.49241308          15.51476543          2.450444708          3.335877307         0.6369433346 
21 1          14.06512328          12.68036818          6.073417843          0.334802104      0.0001100429191      7.530761522e-09          48.77572544          43.36913222          36.50137989          14.39116796          15.60366493          2.448738912          3.323140019         0.7600000198 
22 1          14.07100968          12.70262421          6.160456186         0.3593545561      0.0001684535131      2.051935656e-08          49.51160034           44.1891456          36.85130094          14.87434004          15.61285636          2.579860734           3.25914499         0.8077177777 
23 1          14.05600927           12.6923212           6.19129107         0.4024144817       0.000327196913      7.832018322e-08          49.66136537          44.44061648            36.752922          15.11689271          15.38653485          2.645937538          3.105991868         0.7664833329 
24 1          14.00959513          12.64804278          6.149361258         0.3633821697      0.0001248945572      7.220643555e-09          49.18664802          43.85579559          36.50776475          14.85032258          15.42262144          2.587524712           3.15425506         0.7498486526 
