ITEM: TIMESTEP
0
ITEM: NUMBER OF ATOMS
4
ITEM: BOX BOUNDS pp pp pp
0.0000000000000000e+00 4.2600002000000003e+00
0.0000000000000000e+00 2.4767999999999999e+00
0.0000000000000000e+00 3.0000000000000000e+01
ITEM: ATOMS id type c_1[1] c_1[2] c_1[3] c_1[4] c_1[5] c_1[6] c_1[7] c_1[8] c_1[9] c_1[10] c_1[11] c_1[12] c_1[13] c_1[14] 
1 1          13.96039495          12.60077542          6.122472123         0.3848224524      0.0002153884536      3.297266308e-08          48.56584725           43.3268209           36.1003812          14.75599039          15.23215445          2.614080027          3.224867658         0.8971243373 
2 1          13.96229699          12.60301862          6.110168286         0.3594235823      0.0001948383502      3.211257509e-08          48.65036975          43.35625698          36.19861817           14.6379117          15.37784765          2.533693485          3.277776381         0.7425344276 
3 1          13.96364085          12.60450774          6.102247316         0.3384983876      9.293464469e-05      4.176600635e-09          48.64942145          43.32447294          36.25838282          14.56578323          15.39316567          2.495760441          3.235070272         0.7666393668 
4 1           13.9614845          12.60227282          6.116745768         0.3645882972      0.0001134847488      5.036688631e-09          48.57482145          43.32858826          36.15254117          14.69808894          15.23363059          2.590044904          3.166076811         0.8928564494 
