ITEM: TIMESTEP
0
ITEM: NUMBER OF ATOMS
4
ITEM: BOX BOUNDS pp pp pp
0.0000000000000000e+00 4.2600002000000003e+00
0.0000000000000000e+00 2.4767999999999999e+00
0.0000000000000000e+00 3.0000000000000000e+01
ITEM: ATOMS id type c_1[1] c_1[2] c_1[3] c_1[4] c_1[5] c_1[6] c_1[7] c_1[8] c_1[9] c_1[10] c_1[11] c_1[12] c_1[13] c_1[14] 
1 1          13.95405765          12.59404224          6.138109102         0.4258386819      0.0003327816283      5.684484604e-08          48.58109389          43.47289718          35.95293522          14.90631161          15.12859624          2.670878613          3.220982801         0.8824072041 
2 1          13.95749305          12.59789327          6.112716142         0.3653334854       0.000182899857      2.644458006e-08          48.63135117          43.31181224          36.15316863          14.66075719          15.43967642          2.488648855          3.397721158         0.7595730389 
3 1          13.96990416          12.61114179          6.086355403         0.3020616008      4.462630796e-05      7.658500092e-10          48.65317248          43.29602907          36.40285477          14.40707704           15.5170416           2.45986085          3.234887086         0.7882197615 
4 1          13.96066091          12.60094636          6.114908503         0.3655030793      0.0001945080842      3.116611599e-08          48.63577981          43.40451089          36.15670214          14.67605452           15.1721505          2.624155099            3.0519485          0.756936951 
