ITEM: TIMESTEP
0
ITEM: NUMBER OF ATOMS
4
ITEM: BOX BOUNDS pp pp pp
0.0000000000000000e+00 4.2600002000000003e+00
0.0000000000000000e+00 2.4767999999999999e+00
0.0000000000000000e+00 3.0000000000000000e+01
ITEM: ATOMS id type c_1[1] c_1[2] c_1[3] c_1[4] c_1[5] c_1[6] c_1[7] c_1[8] c_1[9] c_1[10] c_1[11] c_1[12] c_1[13] c_1[14] 
1 1          13.95951958          12.60032267          6.081538385         0.3082333018       7.62972277e-05      4.069010961e-09          48.63954292          43.21550303          36.36114368          14.37194301          15.61772515          2.347026025          3.301213743         0.6055151079 
2 1          13.95169291           12.5914749          6.138035411         0.4220392684      0.0003722853731      1.023578868e-07          48.56817252          43.48772993          35.93993701          14.89232821          14.97600776          2.700507658          3.001470255         0.8378566568 
3 1          13.94792689          12.58742741          6.136970966            0.4344628      0.0004342745356      1.160933784e-07          48.55366384          43.46791291          35.91031938          14.89970446          14.98648634          2.694495376          3.016061799         0.8008180696 
4 1          13.96522692          12.60590422          6.092202233         0.3217696639       0.000138286393      1.780450254e-08          48.64065929          43.27232563          36.33763898          14.44566824          15.60561413          2.403384381          3.331381156         0.6913729458 
