ITEM: TIMESTEP
0
ITEM: NUMBER OF ENTRIES
3672
ITEM: BOX BOUNDS pp pp pp
0 8.52
0 7.37854
0 30
ITEM: ENTRIES c_2[1] c_2[2] c_2[3] c_2[4] c_2[5] c_2[6] c_2[7] c_2[8] c_2[9] c_2[10] c_2[11] c_2[12] c_2[13] c_2[14] c_2[15] c_2[16] c_2[17] 
                   0                  166          -2.11019151       0.004713312957      0.0004783859077       1.10327674e-05      4.667619477e-22      7.170092059e-95     6.052426515e-186      0.0009262217772      0.0006893146586       0.000886075261      4.385592307e-05      0.0006433239448      1.086401369e-10      0.0002041357379      1.391444974e-50 
                   1                   15          -4.88038545        0.01347146259       0.001367309558      3.153355498e-05      1.334086273e-21      2.049336163e-94     1.729888045e-185        0.00264795379       0.001970600608       0.002533105734      0.0001254602826       0.001839157256       3.07624166e-10      0.0005952662122      2.541514714e-50 
                   1                    1          14.98113828     -7.999597252e-05     -8.119330559e-06     -1.872519321e-07     -7.922044702e-24     -1.216932745e-96    -1.027238695e-187     -1.554982453e-05     -1.188694756e-05     -1.486240731e-05     -7.509176764e-07     -1.069241012e-05     -1.851453742e-12     -2.984000122e-06      -3.95102861e-52 
                   0                  167          -1.49944555         0.2164104763        0.03390949747       0.004691683958      5.621374184e-13      2.100252184e-59     5.840910147e-118         0.1726119726         0.1394975186         0.1568672001        0.01732829426        0.09373870349      3.150210307e-06       -0.00144763192      2.439832065e-24 
                   1                   16          -3.73672997         0.7037061354         0.1102641694        0.01525603956      1.827913126e-12      6.829430687e-59     1.899300061e-117         0.5653834786         0.4516738636         0.5125988524         0.0580671835         0.2989697255      1.898323173e-05        0.06396809363      9.798503488e-25 
                   1                    1          15.09882938        -0.0217909146        -0.0034144325     -0.0004724174459     -5.660302907e-14     -2.114796694e-60    -5.881359184e-119       -0.01829537407       -0.01373309591       -0.01685282561      -0.001590519189       -0.01204663423     -5.859264655e-07      -0.006338211508     -9.410199384e-26 
                   0                  123           0.66677938        -0.0193961506      -0.002141191369     -7.381644763e-05     -1.026037158e-19     -8.804207395e-87    -5.141676126e-171      -0.005199914074      -0.003843144219      -0.004936759271     -0.0002878996009        -0.0034990879     -3.621774117e-11      -0.001954553013      1.262165219e-57 
                   1                   10          -4.96882462         0.1890698775        0.02087191413      0.0007195482753      1.000160927e-18      8.582168947e-86     5.012005193e-170        0.05034426537        0.03726096585        0.04780572951       0.002776571224        0.03395105886      3.870895562e-09        0.01571908878      9.165398474e-58 
                   1                    1          14.96249256     -0.0005386647842     -5.946460257e-05     -2.050010936e-06     -2.849483362e-21     -2.445081282e-88    -1.427932747e-172     -9.589607452e-05     -7.775571296e-05     -8.599198652e-05     -1.082546508e-05     -2.715982935e-05     -3.204887588e-11      2.565547709e-05     -2.852285883e-59 
                   0                  170          -5.59882457          0.215421261        0.02433893545      0.0009322850568      3.067670038e-18      7.940815793e-84     3.088422826e-166        0.06306469387        0.04692966221        0.05967093605        0.00371343605        0.04147604927      1.130850551e-07        0.01944346691      3.054689898e-33 
                   1                   20            -1.290019        0.09671105453        0.01092670288      0.0004185393334      1.377197418e-18      3.564943709e-84     1.386514158e-166         0.0282935045        0.02111791606        0.02677193813       0.001664594611        0.01855720673      4.019087628e-08        0.00795961635      3.176237421e-33 
                   1                    1          15.04224884      -0.003728927817      -0.000421305367     -1.613779284e-05       -5.3101166e-20     -1.374549976e-85    -5.346039539e-168      -0.001049552844     -0.0008256495242     -0.0009888078007     -6.642575413e-05     -0.0006474616869     -5.718406875e-10      -0.000110877214     -2.225729673e-34 
                   0                  171          -2.04426397         0.4652945636         0.2047444808          0.258504231       0.007109430678       1.01637062e-12       1.42325384e-25          2.815585535          2.846577068          1.644218775          1.398077674         0.2782970553          0.485175818        -0.1910283211        0.07988967771 
                   1                    7          -0.08519098         0.2965811099         0.1305051683         0.1647719052       0.004531587097      6.478397775e-13      9.071892009e-26          1.760605423          1.678118179          1.057418465         0.8879681171         0.4230426831         0.1210782191         0.3257313375         0.1606988199 
                   1                    1          15.01729421       -0.01625801048      -0.007154044285      -0.009032481409     -0.0002484129571     -3.551334033e-14     -4.973038081e-27       -0.04164380144       -0.05036535403       -0.02617726024       -0.04997030546       -0.02594263866       -0.03570608033       -0.04444622022       -0.04389128738 
                   0                  172          -0.00252035       0.005465599361      0.0009442569294      0.0001801404258       3.22476626e-13      1.464319071e-54     9.091345162e-107       0.002451186417        0.01743622382       0.002616951716     -9.844614974e-05       0.008933839765      9.093427435e-05        0.01541069845     -1.103418554e-05 
                   1                    9          -3.67999358         0.8229300364          0.142172402        0.02712291139      4.855381525e-11      2.204757552e-52     1.368841825e-104         0.8454773653         0.6636817268         0.7527343746         0.1032841172         0.4376389719       0.004055653062         0.1765611252      1.663146807e-05 
                   1                    1          14.93320387       0.001942753323      0.0003356371674      6.403111311e-05      1.146246725e-13      5.204938296e-55     3.231528669e-107       0.007627180603       -0.02150136212       0.008022762778     -0.0004288511256        0.01137836918      8.727075679e-06        0.03271425378     -2.250141305e-07 
                   0                  173          -0.06048008        0.02040532191       0.008893138674         0.0111140689       0.000278823541      2.658568664e-14      2.244196592e-27        0.08634672779       -0.01651881474        0.06899824079        0.04538337734         0.3054624107         -0.148032991         0.3997015085         0.0659713917 
                   1                   17          -1.24134281         0.5580886421         0.2432286884         0.3039714661       0.007625866038      7.271225526e-13      6.137911638e-26          3.316112092          3.282488532           1.96764563          1.632358313         0.5411375615         0.4673823542     -0.0008758628137         0.1395734229 
                   1                    1           15.0303385       -0.01925908296      -0.008393579685       -0.01048975242     -0.0002631610386     -2.509227478e-14     -2.118132148e-27        -0.0618787807       -0.03442835804       -0.04765176786       -0.05573699071       -0.02091585493        -0.0415340016        -0.1416951389       -0.05345838489 
                   0                  174          -4.18071897         0.7276795507         0.1285500829         0.0262936411      8.501306909e-11      5.035982521e-51     7.728972846e-102         0.8004994609         0.6192826817         0.7050961308         0.1062380469         0.3890436793       0.004352813157         0.1679147397       5.83118006e-06 
                   1                   21          -1.17075266         0.4160919886        0.07350578917         0.0150348782      4.861103619e-11      2.879608173e-51     4.419477885e-102         0.4562975142         0.3881872711         0.4022691326        0.06027082563         0.2268098767       0.002424733805        0.09163750742     -1.484468469e-06 
                   1                    1          15.03544298       -0.01566199235      -0.002766809117     -0.0005659232904      -1.82975327e-12     -1.083904579e-52    -1.663522267e-103       -0.01482594053       -0.02008791151       -0.01285570356      -0.002199161012      -0.005899982159     -9.832225958e-05       0.007747065525     -3.125237354e-07 
                   0                  175          -3.61427965         0.5234931379        0.08266271763        0.01174287895      1.754443355e-12      1.699633345e-58     1.552841808e-116         0.4305128303         0.3450568193         0.3888175225        0.04588872289         0.2238887827      0.0001603787297        0.04603982131       2.37274317e-05 
                   1                   22          -2.44820765         0.5293586032        0.08358890991        0.01187445173       1.77410097e-12      1.718676843e-58     1.570240584e-116         0.4351667786         0.3487574138         0.3928410089        0.04659621061         0.2276657872      0.0001733696547        0.04466199295      2.513283516e-05 
                   1                    1          14.91210715       0.004697791046      0.0007418094844      0.0001053797797      1.574425277e-14      1.525239155e-60     1.393509449e-118       0.008206468273       0.004939980491       0.008167858753       4.24024434e-05       0.008325207577      1.862495818e-06       0.008853363773      2.387134014e-07 
                   0                  176          -2.09415335         0.4613557216         0.1024066774        0.03966188306      3.110379926e-08      4.711227776e-38      7.242839626e-76         0.8424704202         0.6499596772         0.7061772683         0.1659888497         0.3266121613        0.02748003936         0.1403449443        0.02922650291 
                   1                   23          -2.37268875          0.783965504         0.1740160547        0.06739603886      5.285358894e-08      8.005623177e-38      1.230750189e-75           1.44790082          1.241108465          1.201870504         0.2868142876         0.5500436951        0.04576390442         0.1966371691         0.0373383475 
                   1                    1          15.03240652       -0.01902390016      -0.004222716477      -0.001635448892     -1.282558217e-09     -1.942664254e-39     -2.986568747e-77       -0.02486890396         0.1528926127       -0.02420317943      -0.006731321762       -0.01604893563      -0.001496356083        -0.0626027373      -0.007166090854 
                   0                  177          -1.42616818         0.3471766331         0.1252137223         0.1238756315      0.0003822444647      3.568090659e-18      2.942317835e-36          1.371661588          1.554098525          1.033947503         0.6212996558         0.3182187617          0.204641509        0.01399278977         0.2217752536 
                   1                   24          -1.28174365         0.6004674374         0.2165663117         0.2142519856      0.0006611198227      6.171274359e-18      5.088954388e-36          2.744821989          2.524947306          1.794534973           1.09039256         0.4970743792         0.3463676072        0.07181149925         0.1954901074 
                   1                    1          14.94570672      -0.000213323494     -7.693786441e-05      -7.61156714e-05      -2.34871005e-07     -2.192421648e-21     -1.807914073e-39         0.1397935239        -0.2273089855        0.06354748726       -0.01437108821        0.07563923933      -0.004246302258        0.08925831802       -0.04766965807 
                   0                  131             0.685991        -0.1028862433       -0.08020426584        -0.1501082209        -0.1446450921     -0.0001340693214      -6.11433837e-09         -1.271589912          -1.39910884        -0.3782248248         -1.059101577       -0.07247731339        -0.3686462574       -0.02859698862         0.2241627141 
                   1                    2          -0.06188054         0.2037668114         0.1588450214         0.2972902165         0.2864704578      0.0002655250814      1.210948319e-08          2.498304604          2.785917461         0.8450524141          2.001982162        -0.1032511259         0.5319499188        -0.1398027156         0.1942277797 
                   1                    1           15.0832695       -0.02172035087       -0.01693195067       -0.03168939912       -0.03053607609     -2.830342142e-05     -1.290800116e-09        -0.1895553439        -0.1045047635        -0.1664530185        -0.1485849811          -0.47449881        -0.2893643169        -0.6837696962        -0.4879039691 
                   0                  132           2.87304417        -0.2818812922       -0.03834125936      -0.003174037328     -5.433547516e-15      -2.51922509e-69     -9.56365852e-138        -0.1481260817        -0.1089373564        -0.1379702622       -0.01115072543       -0.09036830631     -1.139521825e-05       -0.03897134685     -2.679577774e-16 
                   1                   12          -3.61655266         0.4812459631         0.0654586764       0.005418921698      9.276503548e-15      4.300983919e-69     1.632769603e-137         0.2526719911         0.1918886656         0.2351839634        0.01920453835         0.1528703733      2.569363793e-05        0.05463657471      2.921176949e-16 
                   1                    1          15.00887233      -0.006351750957     -0.0008639598922     -7.152193207e-05     -1.224364354e-16     -5.676676963e-71     -2.15501982e-139      -0.002809194458       0.004695766405      -0.002501619176     -0.0003369224591     -0.0007712343484     -2.482915673e-07       0.005025002789     -6.282057741e-18 
                   0                  133           0.79513434        -0.1789724562       -0.04609885654       -0.02521127828     -4.047312114e-07     -3.433915542e-31      -8.02737263e-62        -0.4503193355        -0.3861577968        -0.3542310729        -0.1112387351        -0.1472633683       -0.02325520442        -0.1306479617      -0.001989611596 
                   1                   18          -2.45837614         0.8645493987         0.2226864376         0.1217863125      1.955106014e-06      1.658796934e-30      3.877725281e-61          2.161185795          1.874431356          1.688744657         0.5404633206         0.8315044013         0.0511554085         0.1145383938       0.003998131382 
                   1                    1          14.90178804        0.01006550179       0.002592623094       0.001417895089      2.276228879e-08      1.931251533e-32      4.514635118e-63        0.05693640746        0.02111560937        0.05833759601      -0.001296508231        0.09574487284      0.0004191318551         0.1261047775      0.0001444527989 
                   0                  134            2.2222474        -0.4549275577       -0.09503168879       -0.03146997285     -6.341244343e-09     -2.513747803e-41     -2.297137829e-82        -0.7352980286         -0.591862959        -0.6196045654        -0.1303113019        -0.3482087542      -0.004538116667        -0.1862496253      7.098219213e-13 
                   1                   19          -2.53521578         0.7828547876         0.1635337567        0.05415459779      1.091222857e-08       4.32574257e-41      3.952992772e-82          1.264947244          1.051568152          1.063973467         0.2260076844         0.5748453672       0.006849266062         0.1345013234      8.906077678e-13 
                   1                    1          14.91942199       0.005269152568       0.001100694954      0.0003644977875      7.344682323e-11      2.911523047e-43      2.660636729e-84        0.02296907716         -0.027123374        0.02424612624      -0.001349687756        0.04272247495     -3.454614057e-05         0.1613201031     -8.296626036e-14 
                   0                  135           2.92117543        -0.6703378492        -0.1684963485       -0.08739714081     -8.809016895e-07     -9.691533281e-32     -1.764812984e-63         -1.600514741         -1.399893394          -1.26442541        -0.3825838601        -0.6190811976       -0.02762770646        0.09659304817      -0.001779318892 
                   1                   20            -1.290019         0.5859434045         0.1472829324        0.07639398297      7.699975999e-07      8.471385008e-32        1.5426259e-63          1.403474782          1.199240693          1.110880432         0.3331482058         0.4929225897        0.03294526558         0.2965203569       0.002137450466 
                   1                    1          15.04224884       -0.02259246031      -0.005678848466      -0.002945554152     -2.968911345e-08     -3.266346682e-33     -5.947965989e-65       -0.04937348568       -0.04723271371       -0.03728826733       -0.01381285468     -0.0002454162283       -0.00198512482       0.005972996738     -0.0001631273998 
                   0                  139           4.33928103        -0.7139378466        -0.1225136612       -0.02287902084     -3.418415638e-11     -7.082063658e-53    -1.650279789e-105        -0.7197992507        -0.5780440055        -0.6406222188       -0.08765042153        -0.3625087206       -0.00122042593        -0.1725940312     -7.547451398e-06 
                   1                   21          -1.17075266         0.3989228603         0.0684562394        0.01278397619      1.910088043e-11      3.957203144e-53     9.221171518e-106         0.4057591656         0.2687692004         0.3603399012        0.05017669332         0.1990206449      0.0005491448784        0.06783676466      6.506942799e-06 
                   1                    1          15.03544298        -0.0150157344      -0.002576740545     -0.0004811977707      -7.18970447e-13     -1.489518834e-54    -3.470913205e-107         -0.013679432       -0.07203751873       -0.01163675581      -0.002252129169       -0.00353779221     -1.182736994e-05       0.009100930379      -4.75787788e-07 
                   0                  140           4.90572035        -0.2198024097        -0.0253429835      -0.001062536833     -7.284015891e-18     -3.584628779e-82    -5.324897172e-163       -0.06770782105        -0.0504200867       -0.06395595371      -0.004105457463       -0.04394535525      -1.55016582e-07       -0.01922013661      -3.75485922e-29 
                   1                   22          -2.44820765         0.1661394724        0.01915570404      0.0008031272684      5.505683758e-18      2.709471361e-82     4.024867644e-163        0.05123727319        0.03829904097        0.04838201996       0.003124847185        0.03329048527       1.46295338e-07        0.01608819328      2.060342837e-29 
                   1                    1          14.91210715       0.001474404159      0.0001699972276      7.127350094e-06      4.886017098e-20      2.404519398e-84     3.571867362e-165      0.0006726522431      0.0001813292556       0.000668670654      4.441845681e-06      0.0006918831324      1.499898179e-09       0.001331912852       1.48637192e-31 
                   0                   44          -5.77452999         0.4622641621        0.05916272643       0.003853357102       9.34097599e-16      1.125721473e-73     1.455284902e-146         0.2047304221         0.1519738521         0.1923026126        0.01361435855          0.128322979      1.005758066e-06         0.0527704782      8.172998574e-35 
                   1                    4           1.30663964       -0.00554247684     -0.0007093520716     -4.620116428e-05     -1.119968783e-17     -1.349722886e-75    -1.744864414e-148      -0.002376209513     -0.0006218955668      -0.002136149545     -0.0002627485512     -0.0008412494036     -1.016060624e-08      0.0001080943923      -3.14326116e-36 
                   1                    1          14.98056765      -0.002847468603     -0.0003644323307     -2.373602426e-05     -5.753882312e-18     -6.934252777e-76    -8.964307437e-149     -0.0006706056712      -0.004271160433       -0.00054693846     -0.0001351628337      0.0002450081511     -4.305769775e-09       0.003753863065     -2.117148352e-36 
                   0                   46          -4.23210843            0.9087819         0.1965083247        0.07121787448      3.136395933e-08      3.800572926e-39      2.490220412e-78           1.60234905          1.314288269          1.334818645         0.3010704174         0.7246476102       0.008036664099         0.2762262634      2.593088006e-06 
                   1                    5           1.18869209        0.01030913021       0.002229170615      0.0008078883851      3.557895913e-10      4.311331595e-41      2.824880919e-80        0.01892785591       -0.05399337422        0.01828774665       0.000725024421        0.03012340565     -0.0005647810942         0.1278098127      1.010028385e-07 
                   1                    1          15.05623036       -0.02375627947      -0.005136883425       -0.00186169171     -8.198787665e-10     -9.934998991e-41     -6.509633614e-80       -0.03850191045       -0.05225456113       -0.03213248174       -0.00721590913       -0.01464491458     -0.0004130842522        0.04341708108     -6.130235806e-08 
                   0                   47          -3.61690786         0.8455701006         0.2125036191         0.1101785791      1.106579489e-06      1.198585964e-31      2.140454215e-63          2.032017061           1.76100677          1.600303255         0.4925897844         0.7390095278        0.04613165784          0.159819019       0.004168590869 
                   1                    6            0.0331087         0.2791329908        0.07015003335        0.03637129113      3.652953694e-07      3.956678276e-32      7.065900112e-64         0.6729346184         0.5946563925         0.5309863543          0.161242361         0.2870656163       0.004589529822        -0.1620692719      0.0002903619732 
                   1                    1          15.02935243       -0.01960078901      -0.004925953035      -0.002554001236     -2.565113297e-08     -2.778389465e-33     -4.961692879e-65       -0.03724619951       -0.03575251203       -0.02773697598       -0.01100102752      -0.004677911937      -0.001568889076       0.009397365641      -0.000160036911 
                   0                   48          -1.51315571          0.253618888         0.1861580692         0.3395607415         0.2591098806      8.577308685e-05      1.080291056e-09          2.879284616          3.181214588          1.028893869          2.248589237        0.02631711835         0.6720261449       -0.06552661565         0.1724157965 
                   1                    8           1.31670423       -0.01309129766      -0.009609105673       -0.01752744354       -0.01337473167     -4.427434487e-06      -5.57624548e-11       -0.04112744807       -0.05399125357       -0.01117871956        -0.1497787138         0.2109852484       -0.03622817673        -0.1303843301        -0.4106529598 
                   1                    1          15.02072764        -0.0124757089      -0.009157259139       -0.01670325502       -0.01274581506      -4.21924436e-06     -5.314035106e-11        0.00371752388       -0.01960882137       -0.02110202309        -0.1031372896        -0.1596023296        -0.1629259562        -0.2060817222        -0.3669104101 
                   0                   49          -4.24554253         0.7256196642         0.1265581569        0.02487642206      5.737210242e-11      7.828994748e-52     1.920764232e-103         0.7744671869         0.5752037069          0.688609063        0.09534007248         0.4035145275       0.002395772859         0.1689154934      7.357842733e-07 
                   1                   13           3.60638662        -0.4020981232       -0.07013150261       -0.01378513168      -3.17924332e-11     -4.338394134e-52    -1.064380875e-103        -0.4275106698        -0.3729364646        -0.3806918611       -0.05214267711        -0.2340207067      -0.001426086432        -0.1265404835      1.217454106e-07 
                   1                    1          15.03661341       -0.01557950982      -0.002717283098      -0.000534112402     -1.231815064e-12     -1.680934332e-53    -4.124001416e-105       -0.01468356774      -0.002285757386       -0.01268080015      -0.002215389387      -0.005846848165     -4.161302348e-05       -0.01036233935     -1.021335761e-07 
                   0                   50          -3.54134083          0.832216766         0.2119442583         0.1131198341      1.465580642e-06      4.852815844e-31      3.501010556e-62          2.055140918           1.75763295          1.619012846         0.4983901581         0.8004222234        0.04701305433         0.2909027896       0.007152376429 
                   1                   14           2.54861623         -0.305619607        -0.0778334727       -0.04154162794     -5.382133576e-07     -1.782126643e-31     -1.285695643e-62        -0.7556609841         -0.677531986        -0.5905823777        -0.1879312227        -0.3239399925      -0.008021756179         0.2015155721     -0.0009276043969 
                   1                    1          14.99614065       -0.01196049901       -0.00304603223      -0.001625741897     -2.106311304e-08     -6.974396751e-33      -5.03160174e-64       -0.01432833747       -0.01964411149      -0.007121005367       -0.00840937613        0.01640985175      -0.002085422916        0.02141707172         -0.000574508 
                   0                   51          -2.11019151         0.4822340251         0.2098768009         0.2618988926       0.006482693387      5.825858611e-13      4.567081198e-26          2.887720087          2.941061744          1.722286155          1.391626621          0.325983065         0.4163941721        -0.2700058778         0.1007730488 
                   1                   15           2.49815055        -0.2841382672        -0.1236620135         -0.154314075      -0.003819683328     -3.432668133e-13     -2.690980873e-26         -1.668233604         -1.471951426         -0.998670045        -0.8321174255        -0.5661778708        -0.1057017737        -0.5270027922        -0.1280666276 
                   1                    1          14.98113828      -0.008184642134      -0.003562101424        -0.0044450383     -0.0001100265072     -9.887848093e-15     -7.751407669e-28        0.05024077161       -0.04197130232        0.02058228812       -0.03005770068        0.07777924801       -0.04509581594       0.004662048968       -0.08329733535 
                   0                   52          -1.49944555         0.3628960719         0.1339795672         0.1369112754      0.0005644597326      1.887359899e-17      7.665973976e-35          1.682510446          1.573184815          1.131383193         0.6824172688         0.2185057737         0.2158006618         0.1384918321         0.1896985601 
                   1                   16           3.64180603        -0.5705343118        -0.2106386541        -0.2152477977     -0.0008874266493     -2.967250583e-17     -1.205221419e-34          -2.68611069         -2.594102741         -1.777152951         -1.078924133        -0.5174414437         -0.300856598        0.03949604726       -0.01094849752 
                   1                    1          15.09882938       -0.03654091728       -0.01349073925       -0.01378594032     -5.683686872e-05     -1.900430103e-18     -7.719061809e-36        -0.1572619538        -0.1051327157        -0.1545895879       -0.04609578029        -0.1330443814        -0.0660238355        -0.1377600381        -0.2396448464 
                   0                    1           2.12219929        -0.4618649299        -0.2108894719        -0.2765618676       -0.01070244803     -6.893874838e-12      -6.33418512e-24         -2.916052005         -2.834763309         -1.699341616         -1.484087947        -0.5049072551        -0.3542485987        -0.2148834858        -0.1563373217 
                   1                    3           0.09753836         0.2515685045         0.1148672386         0.1506376669       0.005829407413      3.754954471e-12      3.450102779e-24           1.63225504          1.766274768         0.9648572739         0.7919479012        0.01961606551         0.3541409223        -0.3681578746        0.03611184557 
                   1                    1          15.01739771       -0.01602478168      -0.007316982797      -0.009595540304     -0.0003713301921     -2.391886287e-13     -2.197697359e-25       -0.01956442311         0.0423905409       -0.03627802491        -0.0511630653        0.02048627042       -0.05676844671       -0.03834374221       -0.09304319988 
                   0                    2           2.74547001        -0.6344931424        -0.2486122358        -0.2746040793      -0.002272682984     -1.635771474e-15     -3.077309026e-31         -3.231552723         -3.131929561         -2.105034821         -1.374098202        -0.5402028503        -0.4170004595       -0.04452702303        -0.2162710236 
                   1                    4           1.30663964        -0.0162627789      -0.006372213589      -0.007038414018     -5.825144265e-05     -4.192667822e-17     -7.887492073e-33      -0.006525149125        0.08101196446       -0.02458912628        -0.0496240058        0.04437527238        -0.0344177436        -0.1295198268        -0.2442528984 