ITEM: TIMESTEP
0
ITEM: NUMBER OF ATOMS
24
ITEM: BOX BOUNDS pp pp pp
0.0000000000000000e+00 8.5199999999999996e+00
0.0000000000000000e+00 7.3785360000000004e+00
0.0000000000000000e+00 3.0000000000000000e+01
ITEM: ATOMS id type c_1[1] c_1[2] c_1[3] c_1[4] c_1[5] c_1[6] c_1[7] c_1[8] c_1[9] c_1[10] c_1[11] c_1[12] c_1[13] c_1[14] 
1 1          14.03887167          12.67483647          6.145541655         0.3399414523      0.0001319507587      1.395599294e-08          49.32075663           44.0337317           36.7321744          14.77252749          15.57641698          2.580374497          3.351624589         0.7760335223 
2 1          14.03109579          12.65974561          6.111250845         0.3334762668      0.0001656656923      2.582391826e-08          48.93443882          43.63364724          36.52498736          14.58578399          15.59120666          2.493917452          3.392034807         0.8592315221 
3 1          14.00910238          12.64332589          6.131357506         0.3919713381      0.0002672302748      4.455901619e-08          48.99398272          43.74157103          36.35739765          14.79166662          15.43157987          2.568209174          3.297810092         0.6962211728 
4 1          14.01257068          12.64613063          6.130705149          0.364003836      0.0001323266247      8.924132563e-09           49.0056423          43.74557196          36.38568321          14.76729185          15.41477342          2.580333886          3.219238296         0.6811868361 
5 1          14.05875769          12.69463088          6.166421494         0.3252015334      6.862427949e-05       2.18869802e-09          49.71947391           44.3524951          36.97221591           14.8745048          15.56498057          2.525060786           3.26575656         0.6321630573 
6 1          14.11211738          12.75269573           6.23700534         0.3960290546      0.0004489923895      1.954650608e-07          50.35750674          45.06748414          37.28081018          15.32677257          15.62452616           2.72919952          3.240992293         0.7974129511 
7 1           14.1408811          12.77208686          6.223152666         0.3958023165      0.0004896275435      1.999832193e-07          50.32359865           44.9793486          37.32868814          15.23038836          15.74159917          2.719010982           3.19038104         0.7613668734 
8 1          14.11847825          12.74704014          6.202593173         0.4090191394      0.0002125941772      2.006373399e-08          49.97753182          44.67368917          37.03588778          15.17878086          15.66502735          2.698414349          3.219420161         0.8075705086 
9 1          14.02637881          12.66050873          6.153694041         0.4020310905      0.0003062824632      6.580031388e-08          49.28547459          44.05068855          36.51240697          14.92197729          15.38204031          2.567283688          3.163225204         0.6290564601 
10 1          14.00479148          12.63541951           6.11545638          0.362816574      0.0002342500758      5.038387806e-08          48.80577399          43.54302875          36.28716304          14.68408787          15.41852538          2.571553489          3.323470216          0.689809317 
11 1          13.99497385          12.62039379          6.078983582         0.4117179626      0.0002848482361      5.315993346e-08          48.46535037          43.16246098          36.05756751           14.5426671          15.42209645          2.460057194          3.355532398          0.760050668 
12 1          14.01741974          12.63965526          6.065259815          0.311656794      5.500212817e-05      1.318511199e-09          48.53036218          43.20085425          36.31870535          14.32953385          15.42178639          2.449478714          3.324916644         0.8013810503 
13 1          14.07264251          12.69921637          6.140796002          0.357143389      0.0001106824538      5.578180015e-09          49.31352207          44.00486596          36.74051558           14.7810084           15.6092225          2.554617367          3.346719851         0.8080165526 
14 1          14.09696369          12.72792639          6.174029921         0.3656117645       0.000119543452      6.006259035e-09          49.76707521          44.41617688          37.02495948          14.95604053          15.63986067          2.588395926          3.191834248         0.7998219808 
15 1          14.11836751          12.75085622          6.217967813         0.3609771394      0.0001052258318      4.447765263e-09          50.11739594          44.77186124          37.17016079          15.20751827          15.65208746          2.685825227          3.133709688         0.8576893015 
16 1          14.07797724          12.71965421          6.215940121          0.380144619      0.0002856450101      6.386677221e-08          49.98656077          44.69857092           37.0504196          15.20720698          15.54746583          2.692065948          3.224672346         0.8958889423 
17 1          14.05034179          12.67706005          6.130142691         0.4142344655      0.0002459207768      3.086465367e-08          49.13030639          43.87933623          36.49670831          14.80468795          15.43170509          2.620135085          3.145696499         0.7406894604 
18 1          14.01808143          12.64593046          6.110879236         0.3369067676      0.0001029375393      5.845319223e-09           48.8475885           43.6184696          36.36439233          14.61650461          15.37402361          2.557889749          3.112625101         0.7270886366 
19 1          13.98188598          12.61448821          6.067186434         0.2819199367      3.643731687e-05      6.686106426e-10          48.59181698          43.26289444          36.37221936          14.28427905          15.41762378          2.417342417          3.258348831         0.7179187412 
20 1          14.01604253          12.65282455           6.14887342         0.4116845126      0.0002680229319      4.269333471e-08          49.17613939          43.92962525          36.44291055           14.9093024          15.39962105          2.612934612          3.317871528         0.7315941652 
21 1          14.09277676          12.72591396          6.218881159         0.3929635863       0.000238742858       3.59572271e-08          49.97184786          44.69432429          36.92770989          15.27534552          15.61408686          2.671881602          3.322233438         0.7432185028 
22 1          14.10766489          12.73983088          6.209123843         0.4283423052      0.0002846079337      4.005436268e-08          49.97188158          44.70898401          36.99386565          15.23880737          15.67010005          2.641320739          3.341340458         0.8398268877 
23 1          14.10667082          12.74415003          6.212670436         0.3599455967      0.0001627814142      1.424897895e-08          50.28636249          44.93222383          37.30128647          15.15021951          15.67792285          2.625339952          3.255369141         0.5330066781 
24 1          14.11698439          12.74588394           6.19234821         0.3351809732      0.0001387662525      1.096730668e-08           50.0163188          44.68617805          37.17918342          15.01769234          15.63897393          2.660062578          3.136121386         0.6511954241 
