ITEM: TIMESTEP
0
ITEM: NUMBER OF ENTRIES
588
ITEM: BOX BOUNDS pp pp pp
0 4.26
0 2.4768
0 30
ITEM: ENTRIES c_2[1] c_2[2] c_2[3] c_2[4] c_2[5] c_2[6] c_2[7] c_2[8] c_2[9] c_2[10] c_2[11] c_2[12] c_2[13] c_2[14] c_2[15] c_2[16] c_2[17] 
                   0                   99           0.80404026       -0.01783240001      -0.001935586288     -6.171021117e-05     -4.493782717e-20     -3.121174958e-88    -8.356148278e-174      -0.004438053136      -0.003265429856      -0.004212967962     -0.0002461814102      -0.002977248502      9.026222976e-11      -0.001836487755     -4.704196221e-44 
                   1                    2          -5.01144767         0.1547444348        0.01679646072      0.0005355034514      3.899575304e-19      2.708465797e-87     7.251224973e-173        0.03885193137        0.02832604529        0.03699535841        0.00202993729        0.02664188797      6.281318543e-09        0.01362006932      5.717304081e-43 
                   1                    1          14.97990267        0.00190001903      0.0002062342018      6.575142747e-06      4.788067043e-21      3.325571327e-89     8.903367319e-175      0.0004383893289       0.000320358364      0.0004158136965      2.469492874e-05      0.0002961892243      7.673434487e-11      0.0001970382192      6.102414926e-45 
                   0                   77          -3.45595994         0.5123768386        0.08122445277         0.0116929405      1.952615226e-12      3.058829784e-58     5.092130783e-116         0.4201740581         0.3364977946         0.3772926037        0.04717472612         0.2065454026      2.151816156e-05        0.07240279355      -1.35074151e-25 
                   1                    2          -2.53464767         0.5454677045        0.08647017677        0.01244810642      2.078721099e-12      3.256378383e-58     5.420996189e-116         0.4502420136          0.364075092         0.4065197965        0.04811642096         0.2344660296      2.235651501e-05        0.01691137273      6.977000552e-25 
                   1                    1          14.97990267        0.01109886155       0.001759445173      0.0002532868739      4.229661533e-14        6.6258905e-60     1.103032969e-117       0.005826690424       0.006367626286       0.004657897959       0.001283266318      -0.001034404969      4.178221224e-07      -0.007798368828      4.178578833e-26 
                   0                   79          -1.49357712         0.2107843295        0.03212429585       0.004037386587       2.16933322e-13      2.554654233e-61       9.4922221e-122         0.1554585132         0.1267130725           0.14064305        0.01628314242        0.08047129127      5.152573663e-07      -0.005652078149      5.408852969e-26 
                   1                    4          -3.81131737         0.6740241466         0.1027237231        0.01291033377      6.936867533e-13      8.169006884e-61      3.03532379e-121         0.4962754566          0.400723072         0.4478354571        0.05321746334         0.2470210109      7.961234454e-06        0.04133839321      3.576445437e-26 
                   1                    1          14.92537376        0.01752883491       0.002671457977      0.0003357492613      1.804018541e-14       2.12445168e-62      7.89373643e-123        0.01158601598       0.009389528459        0.01042034743       0.001283286592       0.006121631478      1.517317331e-07       1.59472798e-05      3.781625971e-27 
                   0                   68            0.0842998                   -0                   -0                   -0                   -0                   -0                   -0       0.001549806425      -0.007210792224       0.004258930626      -0.002893426326        0.01931377017      7.143187811e-05        0.04361913462     -1.785202063e-06 
                   1                    1          -3.71934711         0.8137120297         0.1388539779        0.02547174737      3.272168883e-11      3.518983774e-53     3.615938187e-106         0.8106491239         0.5562947412         0.7210373517        0.09942893998         0.4102709619        0.00267747063         0.1835280507      2.790162786e-06 
                   1                    1          15.05659008                   -0                   -0                   -0                   -0                   -0                   -0      -0.007708880531      -0.004744873445      -0.007944161467      0.0002597562566      -0.008566537328     -5.276958697e-06      -0.005352508823      1.902109582e-07 
                   0                   69           0.80404026        -0.1669616953       -0.04201742851       -0.02185088518     -2.253453756e-07     -2.741399247e-32     -5.660153692e-64        -0.3873350283        -0.3244589207         -0.296378945        -0.1038683978       -0.06292482332       -0.01762676154        -0.2734012385      -0.001048226899 
                   1                    2          -2.53464767         0.8742901945         0.2200230759         0.1144215422      1.180014685e-06      1.435525961e-31       2.96392347e-63          2.095302285          1.798961212          1.666757621         0.4879692431         0.8491899612        0.03781341067         0.1296098814       0.002788349766 
                   1                    1          14.97990267         0.0177895515       0.004476902364       0.002328183399      2.401025671e-08      2.920925246e-33       6.03082015e-65        0.02076202649        0.01642205756        0.01327203082       0.008783220181       0.003015838993       0.002011661544        0.03235979934      0.0001116872387 
                   0                   70           2.06694737      -0.002074502379     -0.0002098302067     -4.756392069e-06      -1.70116635e-22     -1.328746406e-95    -5.244091369e-187     -0.0004016142764     -0.0002967075028     -0.0003854333032     -1.767616774e-05     -0.0002879769195     -2.350977261e-11     -0.0001050414035     -1.573238695e-54 
                   1                    3           -4.9448859       0.006465414387      0.0006539588725        1.4823818e-05       5.30187167e-22      4.141184034e-95      1.63437864e-186       0.001251784962      0.0009249966365       0.001201371876      5.507165757e-05      0.0008976147374      7.340136872e-11       0.000327071667      3.759815563e-54 
                   1                    1          14.91176441      0.0001515353518      1.532738381e-05      3.474382834e-07      1.242644231e-23      9.706041127e-97     3.830630605e-188      2.931346332e-05       2.16640287e-05      2.813283479e-05      1.289733426e-06      2.102161604e-05      1.720162799e-12      7.615234609e-06      1.059711686e-55 
                   0                   71           2.76642308        -0.2398685426        -0.0316446395      -0.002325995762     -1.507813153e-15      -1.14305033e-71    -2.573183088e-142        -0.1171346831       -0.08880732161        -0.1104055916      -0.007375018077       -0.07650577047     -7.215146998e-07       -0.03113558457       -5.4405181e-31 
                   1                    4          -3.81131737         0.4512371201        0.05952942325       0.004375628491      2.836475586e-15      2.150289211e-71     4.840633598e-142         0.2207290638         0.1568654977         0.2081209625        0.01381590956         0.1437246172      1.553992904e-06        0.06140189841      2.222719548e-31 
                   1                    1          14.92537376        0.01173498164       0.001548136573      0.0001137936524      7.376606982e-17      5.592094107e-73     1.258866876e-143       0.005307537474        0.01748946121       0.004963931526      0.0003761313987       0.003031883264      2.018889525e-08      -0.002117540126      3.435974629e-32 
                   0                   73           5.06404046        -0.1475586124       -0.01624905775     -0.0005538332232     -7.009336409e-19     -4.167387429e-86    -1.550483411e-170       -0.03912207756       -0.02894129352       -0.03719035912      -0.002112110794       -0.02634436198     -7.418885537e-09       -0.01238443147     -1.431637591e-52 
                   1                    2          -2.53464767          0.111679257        0.01229804663      0.0004191668779      5.304993517e-19      3.154073653e-86     1.173478339e-170        0.02950804681        0.02178543795        0.02803618086       0.001609533965        0.01981393506      4.664419946e-09       0.009591791783     -7.124817555e-53 
                   1                    1          14.97990267       0.002272384965       0.000250233544      8.528965333e-06      1.079429416e-20       6.41772675e-88     2.387725891e-172      0.0005328086815      0.0004934542148      0.0004965777201      3.958249872e-05       0.000276066074       1.59597462e-10     -0.0002435508665      9.663613619e-54 
                   0                   50          -5.75357732         0.0821935778       0.008642619025      0.0002370438984      4.826493668e-20      2.655088226e-90     2.024311402e-178        0.01893265117        0.01358252584          0.018097674      0.0009127222749        0.01332882081      1.398411234e-09       0.007339525404      3.840443575e-57 
                   1                    4          -1.33451737        0.03616664309       0.003802906821      0.0001043035514      2.123743467e-20      1.168286268e-90     8.907331927e-179       0.008337307371       0.005976141018        0.00797000431      0.0004014717686       0.005868110097      6.923422358e-10       0.003156190236      1.249655839e-56 
                   1                    1          14.92537376       0.001847441901       0.000194257714      5.327968949e-06       1.08483739e-21      5.967767034e-92      4.54998773e-180      0.0004173447946      0.0003132087971      0.0003979431479      2.120728248e-05      0.0002863118436      3.186090567e-11      0.0001218000706       8.63205687e-59 
                   0                   42           -4.1757004         0.7091767466         0.1220831632        0.02302895094       3.74652031e-11      1.123147344e-52     4.151769392e-105         0.7236564421         0.5800320628         0.6443589781        0.08810501346         0.3734056784       0.002739435993         0.1157965648       1.18962377e-05 
                   1                    1          -1.24254711         0.4123213341        0.07098017947        0.01338922606      2.178258467e-11      6.530073264e-53     2.413873696e-105         0.4233852872         0.3149820137         0.3797167377        0.04862482195         0.2357374897       0.001672689345         0.1546341546     -2.252788022e-08 
                   1                    1          15.05659008                   -0                   -0                   -0                   -0                   -0                   -0      -0.008602696947         0.0177883986      -0.009555014036       0.001035446007       -0.01701050051     -7.925807404e-06       -0.05402489962      6.944876893e-07 
                   0                   43          -3.45595994         0.8287194658         0.2138133817         0.1173506487      1.943823291e-06       1.89223857e-30      5.252292773e-61          2.064415003          1.766384227           1.61118561         0.5208042738         0.7962318265         0.0643617516         0.3269964264       0.005174168372 
                   1                    2          -0.05784767         0.3024605437        0.07803619242        0.04282986279       7.09443755e-07      6.906167049e-31      1.916947041e-61         0.7615889612         0.6814789416         0.6019555125         0.1826231717         0.3649950483        0.01083580368        -0.1856737567     -0.0002700926897 
                   1                    1          14.97990267        0.01795132395       0.004631523016       0.002541993518      4.210616866e-08      4.098876515e-32      1.137726492e-62        0.02031516095        0.04287972135       0.008728777428        0.01344683845       -0.03527427914       0.002809707831         -0.122543393       0.000894614559 
                   0                   44          -2.19305283         0.4745047138        0.09960218502        0.03340941216      7.522688752e-09       4.84604844e-41      8.122349501e-82         0.7665047678         0.6126069122         0.6422137728         0.1428708324         0.2667804953        0.01664122498         0.1057118561        0.01384538763 
                   1                    3           -2.4680859         0.7714120267         0.1619253111        0.05431436527       1.22297891e-08      7.878320152e-41      1.320466986e-81          1.250493827          1.023529922          1.052643244         0.2275106848         0.4706159159        0.02701258636         0.1903827889         0.0216895803 
                   1                    1          14.91176441        0.03017559169       0.006334088533       0.002124633856      4.783969002e-10      3.081789807e-42      5.165316486e-83        0.04146247232         0.3182003509        0.03656686675       0.008018100503        0.01651588313       0.001433694333       -0.01237056391       0.007749914076 
                   0                   45          -1.49357712         0.3789069346         0.1306606552         0.1211123719      0.0002088213629      1.503272362e-19      5.042710936e-39          1.564817933          1.531530769          1.070762255         0.6027700972          0.218904929         0.1801310718       0.003306465941         0.1058568639 
                   1                    4          -1.33451737         0.6168572799         0.2127144398         0.1971699156      0.0003399594099      2.447314671e-19      8.209490688e-39          2.547096903          2.416345299          1.742752039         0.9794740766         0.4944958066         0.3000793635        0.06729713042         0.1540901527 
                   1                    1          14.92537376        0.03150991877        0.01086574632        0.01007171063      1.736559451e-05      1.250122014e-20      4.193520822e-40        0.04802460386        -0.3125493101        0.07081779627        0.04158566015        0.04295943921        0.04196280088        0.04639615565         0.2260117171 
                   0                   34            0.0842998                   -0                   -0                   -0                   -0                   -0                   -0        0.04370945557        -0.1272290025        0.06699505008       -0.04926732715         0.5042264554        -0.1666141397         0.5355495579      -0.004089494407 
                   1                    1          -1.24254711         0.5572350607         0.2433932895         0.3048959963       0.007813167168      8.180428237e-13      7.761829956e-26          3.223678404          3.261359285          1.972922312           1.60873783         0.5169482277          0.418890075        0.02775863448          0.151729167 
                   1                    1          15.05659008                   -0                   -0                   -0                   -0                   -0                   -0        -0.1101497364       -0.05893569041         -0.125263388        0.02103230909        -0.1434749248        0.02313513163       -0.06248133224      0.0004570167969 
                   0                   35           0.80404026        -0.1141401307       -0.08775067495        -0.1633004484        -0.1494432772     -0.0001103082458     -3.784742733e-09         -1.360618075         -1.216392492         -0.351011646          -1.16731743         0.1416470689        -0.3627289814        0.04380534231         0.2221203157 
                   1                    2          -0.05784767         0.2049079286         0.1575327532         0.2931620669         0.2682852401      0.0001980288091      6.794488397e-09          2.441408825          2.876814314         0.9185625453          1.868582941        0.07536708023         0.4843516857       -0.05948001824         0.2875723645 
                   1                    1          14.97990267        0.01216148249       0.009349720297        0.01739945041        0.01592298683      1.175320013e-05      4.032594162e-10       -0.06516631797        -0.3408642624       -0.06192449469         0.1234784249         0.1263940658         0.1882586441         0.1915832755         0.4496951016 
                   0                   36           2.06694737        -0.4292692117       -0.09485141292       -0.03631832137     -2.578668388e-08     -2.527602253e-38     -2.256054134e-76        -0.7880651323        -0.7352351944        -0.6564696956        -0.1482653166        -0.3723977917      -0.004538980684        -0.1191993439     -1.475088556e-07 
                   1                    3           -2.4680859         0.8016049236         0.1771227881        0.06781978403      4.815330845e-08       4.71997142e-38      4.212890308e-76          1.482379099          1.123170343          1.241387234         0.2712984977         0.7111013736       0.006279468377         0.3079088798      4.203456691e-07 
                   1                    1          14.91176441         0.0313566577       0.006928573507       0.002652930004      1.883629661e-09      1.846327584e-39      1.647970907e-77        0.05145214795         0.1574253049        0.04380796252       0.008709715061         0.0255727399      0.0005909563552       -0.03357201174      1.077502547e-08 
                   0                   37           2.76642308        -0.6317852319        -0.1662258933       -0.09508323914      -2.26637532e-06     -1.090323613e-29     -2.228197357e-59          -1.66245611         -1.433781164          -1.31256632        -0.3980985074        -0.7143568844       -0.02159436179       0.008617452961     -0.0006473257553 
                   1                    4          -1.33451737         0.6050844592         0.1592007848        0.09106479137      2.170592814e-06      1.044243899e-29      2.134028344e-59          1.594974719           1.36833193          1.256224973         0.3847543516         0.5743484211        0.02997064063         0.2583823007       0.001120971667 
                   1                    1          14.92537376        0.03090854689       0.008132195179       0.004651714866      1.108768681e-07      5.334141542e-31      1.090091047e-60        0.06719078687        0.06583791106        0.05219676658        0.01732361525        0.01288509458       0.002623711484       -0.04572352306      0.0001697310872 
                   0                   38               4.3443        -0.7091767466        -0.1220831632       -0.02302895094      -3.74652031e-11     -1.123147344e-52    -4.151769392e-105        -0.7332110871        -0.5728452771        -0.6552918081       -0.08626342283        -0.3807279221      -0.001196726896        -0.1659860977     -2.989763254e-07 
                   1                    1          -1.24254711         0.4123213341        0.07098017947        0.01338922606      2.178258467e-11      6.530073264e-53     2.413873696e-105         0.4248808189         0.3496325345         0.3766451377        0.05326318623         0.2037777479      0.0005652189341        0.03596597802      3.798435944e-07 
                   1                    1          15.05659008                   -0                   -0                   -0                   -0                   -0                   -0        -0.0086001496        0.01811441112      -0.009543415553       0.001026535006       -0.01690497095     -1.253528053e-05        -0.0579501553      2.678198164e-08 
                   0                   39           5.06404046        -0.7328749557        -0.1172126959        -0.0173866857     -3.731635101e-12     -1.728886697e-57    -1.114401137e-114         -0.624971378        -0.5055891245        -0.5610857797       -0.07027498735        -0.3123149485      -2.24937497e-05       -0.04767407542     -1.280879066e-23 
                   1                    2          -0.05784767         0.1901601319        0.03041334888       0.004511348655      9.682527933e-13      4.485967488e-58     2.891552857e-115         0.1603879845         0.1277721078         0.1430981085        0.01900518985        0.07437413561      9.409509324e-06        0.04299647366     -1.031947162e-23 
                   1                    1          14.97990267        0.01128618658       0.001805061485      0.0002677528783      5.746673381e-14      2.662464816e-59      1.71616441e-116        0.00581640679       0.006280077993       0.004445953812       0.001507446556      -0.001206106329         4.024139e-07       -0.00649554623      1.972538427e-25 
                   0                   16          -5.75357732         0.4423878897        0.05595300733       0.003473504347      5.703876075e-16      1.344215306e-74     2.277446492e-148         0.1931405129         0.1430979022         0.1823511824        0.01181125387         0.1245143559      6.413664716e-07        0.04829672756      9.824104044e-34 
                   1                    4           1.14228263       0.006969404871       0.000881486973      5.472179207e-05      8.985919964e-18       2.11768471e-76     3.587902618e-150         0.0030304777       0.001224286931       0.002852391318      0.0001940790733       0.001565797851       1.46561911e-08     -0.0006230212964     -4.210229035e-34 
                   1                    1          14.92537376       0.009943428015       0.001257639989      7.807297901e-05      1.282044162e-17      3.021354888e-76     5.118952344e-150       0.003982939997       0.001415190025       0.003713660881      0.0002947171218       0.002219854578      1.461771172e-08       -0.00069571295        2.2081362e-35 
                   0                    8           -4.1757004         0.9092325462         0.1968793749        0.07160755061      3.252824998e-08      4.514180833e-39      3.503902196e-78          1.590280807          1.307450995          1.333370677         0.2901282312          0.755537786        0.01152641355         0.2421652479      2.252849685e-06 
                   1                    1           1.23425289                   -0                   -0                   -0                   -0                   -0                   -0      8.799346316e-05        0.03083464392     -0.0005871614999      0.0006609901863       -0.01483865477     -0.0004472731381        -0.1071509394      9.743319017e-08 
                   1                    1          15.05659008                   -0                   -0                   -0                   -0                   -0                   -0       -0.02292619862        0.03133793288       -0.02613615046       0.003516102389       -0.05155242724       0.000169603448        -0.1748854835      6.426942421e-08 
                   0                    9          -3.45595994         0.8322395845         0.2175308227         0.1227260988      2.590715909e-06      7.312412101e-30      7.675347509e-60          2.127346454          1.842896379          1.649263895         0.5484211398         0.7729920167        0.05997414889         0.2705004181       0.005551909372 
                   1                    2           2.41895233        -0.2784975799       -0.07279371084        -0.0410686083     -8.669476004e-07      -2.44699857e-30     -2.568449934e-60        -0.7193989222        -0.6491325934         -0.566460549        -0.1752116102        -0.3328715262       -0.01009879613         0.2928448331      0.0006686011637 
                   1                    1          14.97990267        0.01802757507        0.00471204844       0.002658433942      5.611884655e-08      1.583979668e-31      1.662596997e-61        0.02079933033        0.03566241105       0.008590160578        0.01412095727       -0.03342705152       0.002456351536       -0.07381699305       0.001013890674 
                   0                   10          -2.19305283         0.5226018548         0.2166390672         0.2560733451       0.003894192511      4.089691485e-14      2.192092816e-28          2.857380781          2.864168735          1.718235291          1.376795506          0.340246222         0.4204246304        -0.2340037692         0.1167250791 
                   1                    3            0.0087141         0.2812339364         0.1165825515         0.1378037873       0.002095628018        2.2008342e-14      1.179656915e-28          1.569420428          1.390695535         0.9484866303         0.7175711371         0.6452831119        0.08333825861         0.5308887848       -0.02352033185 
                   1                    1          14.91176441        0.03323427508        0.01377691695        0.01628469535      0.0002476467773      2.600793138e-15      1.394036684e-29         0.1279929429        0.08491581053        0.09560348989        0.07165055369        0.06165903461        0.07179611021         0.2359409953         0.1296491969 
                   0                   11          -1.49357712         0.2644968129          0.189098097         0.3407576162         0.2328964572      4.741258809e-05      3.252514673e-10          2.900975584          3.194528014          1.000343291          2.288094055        0.02294568322           0.62469545       -0.08213988797         0.0850288559 
                   1                    4           1.14228263        0.01541681759        0.01102202645        0.01986185751        0.01357491668      2.763553987e-06      1.895804523e-11         0.1387255715         0.1777728105        0.05948025941         0.1317676105       -0.07363369249        -0.0616531306       -0.05363726989         0.3390441105 
                   1                    1          14.92537376        0.02199556759        0.01572540677        0.02833741963         0.0193676805      3.942833089e-06      2.704792755e-11        0.08172958638        0.04183141642        0.05573580379         0.1576338962         0.2792288278         0.2972258735         0.5592603415          0.492683265 
                   0                    1           0.80404026        -0.1081468054       -0.08900020944        -0.1700865596        -0.1981061659     -0.0004238831928     -5.499517264e-08         -1.352294684         -1.420832454        -0.3116573421         -1.247829922         0.2146032789        -0.2934372579       -0.01322327739       -0.05615313921 
                   1                    2           2.41895233        -0.1780106399        -0.1464951662         -0.279964047        -0.3260845775     -0.0006977156475     -9.052256174e-08         -2.300692851         -2.636996137        -0.7936026122         -1.831399613       -0.06271283968        -0.5413035334         0.1012078366        -0.1403169182 
                   1                    1          14.97990267        0.01152290147       0.009482856573        0.01812250174        0.02110795434      4.516420293e-05      5.859664124e-09        -0.1135335456       -0.04852358772       -0.07071776139         0.1334757736         0.1477073611         0.2315039505         0.2142762036         0.5041041682 
                   0                    2           2.06694737        -0.4330678582        -0.2024043128        -0.2715678447       -0.01290963847     -2.059397876e-11     -5.876956468e-23         -2.859424993          -2.75359164         -1.663574077         -1.411489499        -0.6840878483         -0.265836645        -0.2753947426       -0.04649059662 
                   1                    3            0.0087141          0.267693294         0.1251126728         0.1678648958       0.007979866392      1.272980644e-11      3.632737471e-23          1.759359633          1.839882347          1.053747343         0.8626771567        -0.1239766651         0.3270843631        -0.4335865227         0.1028190339 
                   1                    1          14.91176441        0.03163413593        0.01478494749        0.01983710855      0.0009430052367      1.504320192e-12      4.292917062e-24         0.1437178441         0.1051335648          0.112411004         0.0790699046         0.1104125896          0.086892064         0.1883359017         0.1526901151 
                   0                    3           2.76642308        -0.6243079274        -0.2478294011        -0.2782026295      -0.002661866304     -3.629724049e-15     -1.517423809e-30          -3.26284983         -3.146730686         -2.153183339         -1.337294575        -0.5068383602        -0.4050566616       -0.02801745215        -0.1306829032 
                   1                    4           1.14228263        0.02140757766       0.008498093517       0.009539594381       9.12756464e-05      1.244635797e-16      5.203260538e-32        0.08388080998        0.05148003632         0.0777594945         0.0417058936       -0.03155419659        0.04070688485         0.1031058055         0.1977144552 
                   1                    1          14.92537376        0.03054273806        0.01212444717        0.01361038306       0.000130225297      1.775753694e-16      7.423624765e-32        0.08382335958        0.02036224992        0.08028944525        0.05664618521        0.03086634898        0.06997505688         0.2067562677          0.284190362 
                   0                    4               4.3443        -0.9092325462        -0.1968793749       -0.07160755061     -3.252824998e-08     -4.514180833e-39     -3.503902196e-78         -1.608716613         -1.344162647          -1.35494104        -0.2887691867         -0.587763384       -0.02658745577        -0.2349213077       -0.02067179669 
                   1                    1           1.23425289                   -0                   -0                   -0                   -0                   -0                   -0     -0.0005892502517        0.04463944042      0.0006667005122     -0.0004934402602      -0.004274892758      0.0001536664293       -0.07870565151       0.003264522546 