ITEM: TIMESTEP
0
ITEM: NUMBER OF ENTRIES
594
ITEM: BOX BOUNDS pp pp pp
0 4.26
0 2.4768
0 30
ITEM: ENTRIES c_2[1] c_2[2] c_2[3] c_2[4] c_2[5] c_2[6] c_2[7] c_2[8] c_2[9] c_2[10] c_2[11] c_2[12] c_2[13] c_2[14] c_2[15] c_2[16] c_2[17] 
                   0                   68           4.22933412                   -0                   -0                   -0                   -0                   -0                   -0      -0.001915295765       -0.00815819427     -0.0004688417269      -0.001510031755       0.006364983761      0.0001255049018         0.0446518761     -3.799803361e-06 
                   1                    1          -3.78592878         0.8137120297         0.1388539779        0.02547174737      3.272168883e-11      3.518983774e-53     3.615938187e-106         0.8180654326          0.557072462         0.7319360453         0.0954530328         0.4335374622       0.001702515365         0.1941883429      1.380494079e-05 
                   1                    1          15.01694786                   -0                   -0                   -0                   -0                   -0                   -0       0.001121826803       0.001458583548      0.0009503055566      0.0001828861982     -0.0003946984411     -7.626780055e-06      -0.003329721782      2.600604464e-07 
                   0                   70           2.09845567       0.006108149197      0.0006211870941      1.446847839e-05        6.7305999e-22      1.497644975e-94     1.911633963e-185       0.001198165303      0.0008908601409       0.001146174891      5.680579515e-05      0.0008366418539      1.408199402e-10      0.0002851395429      2.853400562e-50 
                   1                    3          -4.94694279        0.01752750123       0.001782513361      4.151769459e-05      1.931364055e-21       4.29753323e-94     5.485485957e-185       0.003438154267        0.00255588384       0.003288568896      0.0001634400983       0.002398696602       3.94543345e-10      0.0008383104678      4.709195619e-50 
                   1                    1          15.06596705     -0.0001405131888     -1.428992263e-05     -3.328360149e-07     -1.548321798e-23     -3.445214982e-96    -4.397564228e-187     -2.763694485e-05     -2.062525676e-05     -2.643733238e-05     -1.310640839e-06     -1.925651131e-05     -3.224199686e-12     -6.204606691e-06     -8.324527566e-52 
                   0                   71           2.92079236          0.203203641        0.03349317558       0.005491643997      2.735047816e-12      4.836712519e-56     2.942259969e-111         0.1876591878         0.1510329463         0.1695714019        0.01994246546         0.1045000352      6.063187162e-06       0.002812227797      2.663661568e-22 
                   1                    4          -3.71589025         0.7583689738         0.1249986716        0.02049516634      1.020737323e-11      1.805092021e-55     1.098070223e-110         0.6985870187         0.5630025712         0.6267499365        0.07910017454         0.3552131743      3.650917881e-05        0.06769258158      1.130631419e-22 
                   1                    1          15.06640571      -0.007680316749      -0.001265913328     -0.0002075630395     -1.033742971e-13     -1.828091464e-57    -1.112061202e-112      -0.007713997919       -0.00598121644      -0.007188695553     -0.0005802637063      -0.005109709527     -3.753455904e-07     -0.0005988219048     -7.071403521e-24 
                   0                   73           4.88692121       -0.02825144521      -0.003236838105      -0.000131965643     -7.210504548e-19     -1.422486525e-83    -6.814695777e-165      -0.008681286566      -0.006363343969      -0.008237382312     -0.0004862212278      -0.005954256113     -2.659796301e-08      -0.004073683062     -5.626896824e-30 
                   1                    2          -4.92699761         0.2618409107        0.02999976217       0.001223088018      6.682861934e-18      1.318393323e-82     6.316017235e-164        0.08014772257        0.05856657062        0.07604017335       0.004494570161        0.05409352859      1.100989983e-07        0.02821508154      5.145763412e-29 
                   1                    1          14.97194227       0.001933543069      0.0002215308221       9.03179474e-06      4.934905449e-20       9.73556907e-85     4.664011943e-166      0.0006739109957       0.000493674678       0.000643274147      3.350490525e-05      0.0004713854526       1.37307285e-09      0.0002843378588      3.828005314e-31 
                   0                   74           6.35845587      -0.006246807549     -0.0006354162763     -1.481475378e-05     -6.958020476e-22     -1.606695048e-94    -2.137471004e-185      -0.001217172029     -0.0009128187291      -0.001163303461     -5.883771766e-05      -0.000838931027     -5.105671495e-11     -0.0002649383953     -3.137763386e-52 
                   1                    3          -4.94694279        0.01794017508       0.001824848797      4.254641662e-05      1.998270389e-21        4.6142594e-94     6.138592192e-185       0.003494673719        0.00262212952       0.003339815283      0.0001691443861       0.002406411393      1.545613623e-10      0.0007576286815      5.278983549e-52 
                   1                    1          15.06596705     -0.0001438214823     -1.462931426e-05     -3.410829984e-07     -1.601958778e-23     -3.699125699e-96    -4.921141653e-187     -2.811915046e-05     -2.090128511e-05     -2.690313418e-05       -1.3283327e-06     -1.965590154e-05     -1.200274779e-12      -7.25781454e-06     -6.416945638e-54 
                   0                   75           7.18079256        -0.2669268029       -0.03532509941      -0.002628810062     -1.884727635e-15     -2.186905829e-71    -8.368113865e-142        -0.1299589159        -0.0871643212         -0.121803966      -0.008935644533       -0.08019416458     -1.007704415e-06       -0.03445816579      1.322093423e-32 
                   1                    4          -3.71589025         0.4416641727        0.05844984706       0.004349698901      3.118520367e-15      3.618512428e-71      1.38461033e-141         0.2145986213         0.1636039637         0.2010208322        0.01487862781         0.1321167888      1.579296351e-06        0.05220510871      5.629301183e-32 
                   1                    1          15.06640571      -0.004472916034     -0.0005919458138     -4.405120261e-05     -3.158254759e-17     -3.664617431e-73    -1.402252238e-143      -0.002326789823      -0.000886203495      -0.002239292659     -9.614443273e-05      -0.001928387759     -1.009522242e-08      -0.003653141701     -1.285638877e-33 
                   0                   42          -0.03066608         0.7091767466         0.1220831632        0.02302895094       3.74652031e-11      1.123147344e-52     4.151769392e-105         0.7230708235         0.5870383218         0.6408728668        0.09105383299         0.3540112216       0.001733790794         0.1244912712      8.908680241e-07 
                   1                    1          -1.30912878         0.4123213341        0.07098017947        0.01338922606      2.178258467e-11      6.530073264e-53     2.413873696e-105         0.4177423884         0.2912560541         0.3717935836        0.05104386226         0.2193130212       0.001132859976         0.1419459048     -1.371172367e-08 
                   1                    1          15.01694786                   -0                   -0                   -0                   -0                   -0                   -0       0.001477963695       -0.02499545644       0.001876031303     -0.0004357336362       0.003792904774     -3.735698432e-06        0.01604249528      2.509755039e-08 
                   0                   45          -1.33920784         0.2798305516        0.03276619737       0.001469941614      1.743094766e-17      7.907868165e-81     1.842891615e-160        0.09086876488        0.06708444231         0.0857540068       0.005600959735        0.05948285722      5.771736877e-07        0.03096207998      5.550786814e-30 
                   1                    4          -1.23909025         0.1209446556        0.01416177195      0.0006353187002      7.533773384e-18      3.417834066e-81     7.965102113e-161        0.03927173788        0.02921844523        0.03712406849       0.002350805516        0.02592457118      2.021487113e-07        0.01231776423      8.326992125e-30 
                   1                    1          15.06640571      -0.002485357486     -0.0002910179516     -1.305550939e-05     -1.548156054e-19      -7.02349305e-83    -1.636792139e-162     -0.0008304615921     -0.0005763366854     -0.0007856075954     -4.915972461e-05     -0.0005736554832     -6.484299782e-09     -0.0005005245358      1.135918817e-31 
                   0                   34           4.22933412                   -0                   -0                   -0                   -0                   -0                   -0       0.008907217792         -0.124066855       -0.01021895087     -0.0003524138154          0.323855359        -0.1395528126         0.5893177604       -0.01433674844 
                   1                    1          -1.30912878         0.5572350607         0.2433932895         0.3048959963       0.007813167168      8.180428237e-13      7.761829956e-26          3.239915038          3.267790715          2.006177401           1.59643746         0.5760566191         0.4560431128        0.03884338689         0.1518651176 
                   1                    1          15.01694786                   -0                   -0                   -0                   -0                   -0                   -0        0.01411756199        0.02179964347        0.01453790618       0.001002533757       -0.02239953111       0.009237021979       -0.04267084946       0.001031329865 
                   0                   35           0.62692101         0.5432547567        0.08805244142        0.01365796444      4.265058447e-12      1.000044927e-56     4.881224122e-113         0.4768268107          0.386985235         0.4270701765        0.05474193513         0.2317434858      2.723251895e-05        0.03754566421     -2.925283512e-23 
                   1                    2          -2.45019761         0.5455855259        0.08843021983        0.01371656229      4.283357167e-12      1.004335499e-56     4.902166427e-113         0.4767339523         0.3873363384         0.4273718823         0.0543283579         0.2369712737      2.121110108e-05        0.02408988021      1.859746107e-22 
                   1                    1          14.97194227       0.006786978644       0.001100054868      0.0001706313876      5.328413647e-14      1.249373978e-58     6.098200424e-115        0.00834679135       0.005359072015       0.008109768031      0.0002651819142       0.008246691268      4.242958428e-07       0.006317327239     -1.828859188e-24 
                   0                   36           2.09845567         0.4598088929         0.1011024403          0.038236236       2.43818806e-08      1.492925934e-38      7.402662836e-77         0.8329186071         0.5757782804         0.7020205569         0.1539084432          0.326787937         0.0188322639         0.2002037177        0.02224150691 
                   1                    3          -2.47014279         0.7849810639         0.1726010575        0.06527651308      4.162449849e-08      2.548707965e-38      1.263775068e-76          1.420713939          1.248962463          1.186562951         0.2682604319         0.5193315672        0.03154179802         0.1721798385        0.02341805817 
                   1                    1          15.06596705       -0.01057754349      -0.002325782464     -0.0008795946655     -5.608860691e-10     -3.434359196e-40     -1.702924613e-78        -0.0219707697       -0.04423855064       -0.01850089086      -0.003165959625      -0.008711634632     -0.0003266466126        0.01277554973       0.001528680898 
                   0                   37           2.92079236         0.3066627174         0.1189301764         0.1296705044      0.0009553248086      4.118916143e-16      4.084304668e-32          1.386331473          1.649619213          1.018182114         0.6389458887         0.3385374613          0.222285898       -0.05376995981          0.272702453 
                   1                    4          -1.23909025         0.5640355051         0.2187446935         0.2384990555       0.001757100164      7.575798476e-16      7.512138631e-32          2.875625705          2.647462625          1.842187315          1.197679272         0.4019695169         0.3731138879        0.08821640692         0.1730928898 
                   1                    1          15.06640571       -0.01159067226      -0.004495103637      -0.004901046763      -3.61076066e-05     -1.556792018e-17     -1.543710211e-33        -0.1135835412       -0.01449939333       -0.05399992646       -0.01620368893       -0.04214038483      -0.006270199105       -0.03455381035        0.04189253658 
                   0                   38           8.48933432        -0.7091767466        -0.1220831632       -0.02302895094      -3.74652031e-11     -1.123147344e-52    -4.151769392e-105        -0.7190962382        -0.5732328217        -0.6393846728       -0.08884394086        -0.3736324684      -0.003663730825        -0.1847442894        -1.331266e-05 
                   1                    1          -1.30912878         0.4123213341        0.07098017947        0.01338922606      2.178258467e-11      6.530073264e-53     2.413873696e-105         0.4194865169          0.302532599         0.3715708352        0.05331252036         0.2098037377        0.00206626367        0.07835176971      2.638929517e-05 
                   1                    1          15.01694786                   -0                   -0                   -0                   -0                   -0                   -0       0.001322769978       -0.02617622608       0.001430690833     -0.0001142871299       0.003142682533      2.978171104e-06         0.0228012661     -1.335270187e-06 
                   0                   39           4.88692121        -0.1555342904       -0.04151053042       -0.02445770024     -7.566611246e-07     -1.144098133e-29     -9.778796474e-59        -0.4224609478        -0.3329325964        -0.3314854647        -0.1052362866         -0.119147961       -0.02404218586        -0.4122709056      -0.003417499212 
                   1                    2          -2.45019761         0.8557081939           0.22837987         0.1345597453      4.162947751e-06      6.294522866e-29      5.380033078e-58          2.302277051          2.004241064          1.789839823         0.5881267861         0.8794721289        0.06437522261         0.1153756083       0.006258315719 
                   1                    1          14.97194227        0.01064484478       0.002841001505       0.001673897262      5.178626658e-08      7.830264962e-31      6.692657315e-60        0.04403187334        0.03247361693        0.03904443615       0.005853953696        0.02492054133       0.001676013479          0.032673254      0.0002335730214 
                   0                   40           6.35845587         -0.459529155        -0.1010724155       -0.03825497932     -2.456131459e-08     -1.549639763e-38     -7.976857347e-77        -0.8384607742        -0.6795131347        -0.7003366426        -0.1559023957        -0.3905038159      -0.005670647685        -0.1657506784     -1.911015381e-07 
                   1                    3          -2.47014279         0.7851507778         0.1726921671        0.06536239636      4.196542276e-08      2.647712016e-38      1.362924568e-76          1.423838979          1.162632107          1.184059916         0.2709185127         0.6491204873        0.01122465202         0.2438859025      4.319448454e-07 
                   1                    1          15.06596705       -0.01057983037      -0.002327010157     -0.0008807519344     -5.654799904e-10     -3.567766192e-40     -1.836527601e-78       -0.02163892985        0.08402394311       -0.02021505418      -0.001697674768        -0.0271737938     -0.0002360427639        -0.1204928234     -4.399885444e-09 
                   0                   41           7.18079256        -0.6874074576        -0.1748327678       -0.09304437015     -1.175372009e-06     -3.482933272e-31     -2.187270155e-62         -1.682086623         -1.473262024         -1.324370766        -0.4091838766        -0.6712703684       -0.03660414815        0.09665606207      -0.003050598581 
                   1                    4          -1.23909025         0.5605451734         0.1425670657        0.07587286409      9.584549878e-07      2.840151664e-31      1.783605509e-62          1.362983806          1.155055994          1.066688008         0.3402663779         0.4861377715        0.04651425805         0.3936118988       0.003132981702 
                   1                    1          15.06640571       -0.01151894754      -0.002929688146      -0.001559152736     -1.969581266e-08     -5.836382074e-33     -3.665227935e-64       -0.03170798758       -0.02344850083       -0.02861818924      -0.003831542734       -0.02897212572      -0.001853261601      -0.001017609871     -0.0001775140177 
                   0                   46           9.14692141        -0.2253802929       -0.02604425427      -0.001102750172     -8.188162354e-18     -5.563516313e-82    -1.232330638e-162        -0.0702933457       -0.05144672182       -0.06651865821       -0.00413045242       -0.04648678152     -4.000881955e-08       -0.02240593086     -1.437358516e-41 
                   1                    2          -2.45019761         0.1658122751        0.01916075713      0.0008112932704      6.024030812e-18      4.093078794e-82     9.066256155e-163        0.05175105076        0.03815430982        0.04897607601       0.003036817959        0.03434294919      1.946023455e-08        0.01852411072      5.200330601e-41 
                   1                    1          14.97194227       0.002062672701      0.0002383561207       1.00923317e-05      7.493778066e-20      5.091711024e-84     1.127824768e-164      0.0007553769729      0.0001864888497      0.0007297381412      2.812423444e-05      0.0006329123937      3.666169266e-10       0.001131756967     -3.293087511e-43 
                   0                    8          -0.03066608         0.9092325462         0.1968793749        0.07160755061      3.252824998e-08      4.514180833e-39      3.503902196e-78          1.593532836          1.302484703          1.326810883         0.3002588243         0.7397083259       0.007632063845         0.2799888803      2.424174055e-07 
                   1                    1           1.16767122                   -0                   -0                   -0                   -0                   -0                   -0     -0.0003815121503       -0.06515218307      0.0001715850239     -0.0004904106294       0.004411190928      0.0007485969428        0.09515576752     -3.947653038e-08 
                   1                    1          15.01694786                   -0                   -0                   -0                   -0                   -0                   -0       0.003876317333       -0.04611403145       0.005352290718      -0.001598854457        0.01331516998      0.0001268195023        0.08264857472      1.666750829e-09 
                   0                   10          -2.16154453       0.003234584827       0.000326642119      7.344580696e-06      2.425297787e-22      1.355048127e-95      3.63122659e-187      0.0006089377979      0.0004527285582      0.0005831345741      2.818565659e-05      0.0004280659043      2.217517516e-11      0.0001501274911      5.958131258e-52 
                   1                    3           0.00665721      0.0005876184648      5.934020925e-05      1.334270537e-06        4.4059743e-23       2.46168007e-96     6.596753241e-188      0.0001106246718      8.226186235e-05      0.0001059380731      5.119314998e-06      7.775824525e-05        4.1256188e-12      2.723880698e-05      8.673020351e-53 
                   1                    1          15.06596705     -2.480984805e-05     -2.505403868e-06     -5.633425642e-08     -1.860247073e-24     -1.039346313e-97    -2.785216179e-189     -4.673564549e-06     -3.469727356e-06     -4.475961761e-06     -2.158486559e-07      -3.28901171e-06     -1.689038798e-13     -1.178099619e-06     -4.874506104e-54 
                   0                   11          -1.33920784         0.5851814475        0.08111737783       0.007217964221      2.233021754e-14      1.283168579e-67     1.124327785e-134         0.3246870388         0.2407563086         0.3022610792        0.02468125621         0.2004479174      8.826352048e-05        0.08152113064      5.868156915e-16 
                   1                    4           1.23770975       -0.00736013999      -0.001020256638     -9.078419581e-05     -2.808590871e-16     -1.613909739e-69    -1.414127178e-136      -0.004085969821       0.003469339424      -0.003796133674     -0.0003190786629      -0.002492587315     -2.716082157e-06        0.00113542847      2.995544748e-16 
                   1                    1          15.06640571       -0.00519737778     -0.0007204562943     -6.410744398e-05     -1.983292139e-16     -1.139665636e-69    -9.985887747e-137      -0.003020918489       0.002325014858      -0.002829061143     -0.0002116260286      -0.001987033482     -1.044458936e-06       0.001262855411      5.476990724e-18 
                   0                    1           0.62692101         0.8422541165         0.2165424002         0.1179575665      1.828740165e-06      1.331353042e-30        2.5704525e-61          2.112217938          1.822813437           1.65249216         0.5230581336         0.7720828703        0.03940377632         0.2447592894       0.002141777104 
                   1                    2           0.02660239         0.2667850382        0.06859007441        0.03736320579      5.792557203e-07      4.217077308e-31      8.141940241e-62         0.6657277598         0.5956065737         0.5216944582         0.1639759499         0.3139646326       0.004675894368        -0.2460518837      2.951295704e-05 
                   1                    1          14.97194227        0.01052243102       0.002705302858       0.001473664933      2.284677731e-08       1.66328312e-32       3.21131219e-63        0.04122988149        0.01875849056        0.04031854281       0.001348415012        0.05658367032       0.001033184119        0.07791017387      4.077937635e-06 
                   0                    2           2.09845567         0.4747590344         0.2122848568         0.2725431761       0.008712201451      2.416950517e-12      7.750143178e-25          2.924977666          2.928288363          1.756316192          1.431589153         0.2618930396         0.4093904486        -0.2142809623         0.1603002603 
                   1                    3           0.00665721         0.2586735486          0.115663891         0.1484957745       0.004746862939      1.316881032e-12      4.222683283e-25          1.641783473          1.537253308         0.9408621169         0.7841373416          0.571427389        0.05766433927         0.4389939807        -0.0114217765 
                   1                    1          15.06596705       -0.01092145979      -0.004883446885      -0.006269642331     -0.0002004173716     -5.560005387e-14     -1.782859745e-26       -0.04823411378      -0.005740347575       -0.05600741388       -0.02569748128       -0.03305128708       -0.01104085747        -0.1384798143       -0.06639987595 
                   0                    3           2.92079236         0.1872718273         0.1636004095         0.3192082566         0.4488594427       0.002205489778      8.087201014e-07          2.572798973           2.94347491         0.7383520338          2.236206887        -0.1150821893          0.694044719       -0.09448237072         0.1721342276 
                   1                    4           1.23770975       -0.01002355744      -0.008756565925       -0.01708533708       -0.02402480112     -0.0001180468723     -4.328602175e-08       -0.04830989156       0.005012523284       -0.05427160545        -0.1048972245       -0.00997151542          0.176147377        -0.1748298147        -0.4698089165 
                   1                    1          15.06640571      -0.007078155414      -0.006183466786       -0.01206484543       -0.01696516204     -8.335903825e-05     -3.056651204e-08      -0.002900542126        0.06231402347       -0.08325959309        -0.0430430017        -0.2108068082         -0.136726908         -0.369046192        -0.3674459202 
                   0                    4           8.48933432        -0.9092325462        -0.1968793749       -0.07160755061     -3.252824998e-08     -4.514180833e-39     -3.503902196e-78         -1.572184045         -1.313357992         -1.308514133        -0.3079598164        -0.5872247027       -0.04516065744        -0.2291558215       -0.04010173008 
                   1                    1           1.16767122                   -0                   -0                   -0                   -0                   -0                   -0       0.003458981222        -0.1070641582      -0.001739564855       0.001551745721       -0.00831052968     -0.0004996393095        0.04716427344      -0.007724907754 
                   1                    1          15.01694786                   -0                   -0                   -0                   -0                   -0                   -0       0.006130677491       -0.07614542746       0.003911442116     -0.0004453349588        0.01090109685     -0.0003461742684        0.03944311068      -0.005454937309 
                   0                    5           4.88692121       -0.09450674025       -0.08214152635        -0.1600007048        -0.2215765269      -0.001017742503      -3.43034641e-07         -1.044008577         -1.489822843        -0.4311894985         -1.072322878       -0.05300864236         -0.384008214      -0.006609781336        -0.4565077867 
                   1                    2           0.02660239         0.1639915034         0.1425349384         0.2776389923          0.384487579       0.001766023489      5.952460783e-07          2.338709362          2.552664924         0.5556875705          2.023947009        -0.1496245706         0.6226455331        -0.1003874575        0.02206028193 
                   1                    1          14.97194227       0.006468088666        0.00562180723        0.01095052842        0.01516480854      6.965480696e-05      2.347746275e-08        0.02611948897        -0.2254706785         0.1447008705        0.01953488828         0.3101313881        0.08153025605         0.4185245393          0.153418259 
                   0                    6           6.35845587        -0.4742189792        -0.2121988857        -0.2726385438      -0.008774657189     -2.508267981e-12      -8.34961968e-25         -2.918372615          -2.81609996         -1.719175924         -1.459785813        -0.6083834603         -0.340408385         -0.300742947        -0.1530391485 
                   1                    3           0.00665721         0.2585924824          0.115712443         0.1486702999       0.004784836719      1.367763148e-12      4.553062983e-25          1.593659638          1.745760462         0.8918412064         0.8367743334       -0.08151029017         0.3920395305        -0.4999101074        0.01307276582 
                   1                    1          15.06596705       -0.01091803709        -0.0048854968      -0.006277010969     -0.0002020206632     -5.774834845e-14     -1.922349408e-26       -0.04351953742      -0.002676980203       -0.06748828078       -0.01487540174       -0.09355680566       -0.04373900416       -0.06846372258       -0.06957523723 
                   0                    7           7.18079256        -0.7059017964        -0.2500330707        -0.2410714539     -0.0005908937775     -2.001458672e-18     -4.649860644e-37         -3.053638103         -2.935099059         -2.048559557         -1.230304855        -0.5433886391        -0.3804996753       -0.06151468031        -0.2177704667 
                   1                    4           1.23770975       -0.01675115037      -0.005933320451      -0.005720660005     -1.402199367e-05     -4.749489992e-20     -1.103418567e-38       -0.01593198019        0.09521717251       -0.05605532733       -0.02121881913       -0.04220766875       -0.02801305304       -0.08525668742        -0.2160737836 
                   1                    1          15.06640571       -0.01182885881       -0.00418982627      -0.004039655664     -9.901659267e-06      -3.35386199e-20     -7.791812587e-39       -0.01790736251        0.06240951166       -0.05031571187       -0.01134514246       -0.02457122967        -0.0238878713       -0.07235431887        -0.1534699065 
                   0                   12           9.14692141        -0.7670087619        -0.1267496385       -0.02095908642     -1.121052536e-11     -2.700463161e-55    -2.416399958e-110        -0.7011446449        -0.5683985013        -0.6262474147        -0.0830603403        -0.3518880364      -0.002062764672       -0.05395498553     -0.0009693538856 
                   1                    2           0.02660239         0.1779754459        0.02941077671       0.004863311785      2.601271783e-12      6.266110102e-56     5.606974539e-111         0.1630258144         0.1311930936         0.1449428413        0.02002960961        0.07581091855      0.0004333826071        0.03488642989      0.0003173890922 