ITEM: TIMESTEP
0
ITEM: NUMBER OF ATOMS
4
ITEM: BOX BOUNDS pp pp pp
0.0000000000000000e+00 4.2600002000000003e+00
0.0000000000000000e+00 2.4767999999999999e+00
0.0000000000000000e+00 3.0000000000000000e+01
ITEM: ATOMS id type c_1[1] c_1[2] c_1[3] c_1[4] c_1[5] c_1[6] c_1[7] c_1[8] c_1[9] c_1[10] c_1[11] c_1[12] c_1[13] c_1[14] 
1 1          13.95695659          12.59795089          6.095515802         0.3306387231       7.08424272e-05      1.991731236e-09          48.58421042          43.33037459          36.19489028          14.53916893          15.21861303          2.466517243          3.020599673         0.6663139533 
2 1          13.94586917          12.58672162          6.091060894         0.3379462921      7.997509982e-05      2.610964534e-09          48.56337984          43.33422003          36.14245539          14.53104391          15.15285323          2.420490142           2.96221595         0.5181628915 
3 1          13.95086422          12.59116971          6.112807732         0.3838574428      0.0002717109446      5.951033595e-08          48.56326876          43.38656897          36.03167754          14.71205383          15.14471627          2.530565955          3.087045397         0.6368149724 
4 1          13.95691571          12.59728936           6.11343797          0.376790205      0.0002625782723      5.889110265e-08          48.58723896          43.40859874          36.07154769          14.70025882          15.21120865          2.550930052          3.122928484         0.7186536353 
