./descriptors_graphene/lmpdatafile.5 (written by ASE) 

4 	 atoms 
1  atom types
0.0      4.2600002000000003  xlo xhi
0.0      2.4767999999999999  ylo yhi
0.0                      30  zlo zhi


Atoms 

     1   1    0.084299799999999994              1.23425289      15.056590079999999
     2   1     0.80404025999999995      2.4189523299999998             14.97990267
     3   1      2.0669473699999998   0.0087141000000000007             14.91176441
     4   1              2.76642308              1.14228263      14.925373759999999
