./descriptors_graphene/lmpdatafile.19 (written by ASE) 

24 	 atoms 
1  atom types
0.0      8.5199999999999996  xlo xhi
0.0      7.3785360000000004  ylo yhi
0.0                      30  zlo zhi


Atoms 

     1   1    0.027757529999999996      1.1649714799999999      15.074970970000001
     2   1     0.78178367999999987    0.076136539999999989      15.075779880000001
     3   1      2.0999211799999999      7.2863193600000011      14.940596490000001
     4   1              2.84703287              1.19365397      14.989532410000001
     5   1      4.2070473899999996              1.28458294             14.97929149
     6   1      4.9544500200000003      7.3416763999999999      14.964104119999998
     7   1      6.3952587199999993              7.37507935             14.94850752
     8   1      7.0693271899999992      1.1511357799999999      15.002757120000002
     9   1    0.014568289999999999      3.7600051099999994             15.00139924
    10   1     0.65561850999999993              2.47638918      15.061300360000002
    11   1      2.0963289000000001      2.5314344900000001               14.933194
    12   1      2.7864668999999997      3.7803544100000002      15.066236699999999
    13   1      4.2616106399999998      3.7216605599999997             14.94233298
    14   1      4.9159907399999989      2.4681773800000002      14.928327790000001
    15   1      6.4724979400000002      2.4891127700000002      15.021703210000002
    16   1      7.1998452299999993      3.6435396799999999      15.046483970000001
    17   1    0.087466019999999992      6.1046155999999989             14.93765269
    18   1     0.72039089999999995      5.0054112100000001      15.032823179999998
    19   1      2.1576731599999999      4.8465528100000004      15.017769729999999
    20   1      2.8426769999999997      6.1632703199999996             14.98817745
    21   1      4.3290792499999995      6.1725245800000001      15.055383209999999
    22   1      4.9464577199999997      4.8338094699999994             15.05160931
    23   1      6.4806954299999999      4.9072964799999994      15.049287069999998
    24   1      7.1887137299999999      6.2023004199999994      15.022398110000001
