./descriptors_graphene/lmpdatafile.3 (written by ASE) 

4 	 atoms 
1  atom types
0.0      4.2600002000000003  xlo xhi
0.0      2.4767999999999999  ylo yhi
0.0                      30  zlo zhi


Atoms 

     1   1    0.032019909999999999      1.2109320800000001      15.073762760000001
     2   1     0.77992660999999996      2.4721497299999999             14.90468635
     3   1              2.19205206      2.3998752699999999      15.077957829999999
     4   1      2.8512932700000002              1.29776951              14.9938754
