./descriptors_graphene/lmpdatafile.1 (written by ASE) 

4 	 atoms 
1  atom types
0.0      4.2600002000000003  xlo xhi
0.0      2.4767999999999999  ylo yhi
0.0                      30  zlo zhi


Atoms 

     1   1      4.2196221999999999      1.2106612299999999      15.085515359999999
     2   1     0.61734359999999988      2.3975550000000001             15.04184854
     3   1              2.16082391      2.4428747499999997      15.077761200000001
     4   1      2.8715734599999996      1.3256914199999998              14.9139681
