./descriptors_graphene/lmpdatafile.4 (written by ASE) 

4 	 atoms 
1  atom types
0.0      4.2600002000000003  xlo xhi
0.0      2.4767999999999999  ylo yhi
0.0                      30  zlo zhi


Atoms 

     1   1      4.2485512500000002              1.16904264             14.91165326
     2   1     0.68454267000000002    0.049444710000000003             14.98746736
     3   1      2.1179893299999999              0.02927192      14.983914800000001
     4   1      2.7426517100000001      1.2662907699999999      15.074355710000001
