./descriptors_graphene/lmpdatafile.11 (written by ASE) 

24 	 atoms 
1  atom types
0.0      8.5199999999999996  xlo xhi
0.0      7.3785360000000004  ylo yhi
0.0                      30  zlo zhi


Atoms 

     1   1    0.030136799999999998      1.2370425699999998             14.94481189
     2   1     0.68599100000000002      7.3166554600000007              15.0832695
     3   1      2.1221992900000002    0.097538359999999991      15.017397709999997
     4   1              2.74547001              1.30663964      14.980567649999999
     5   1      4.2878915700000002      1.1886920899999998      15.056230359999999
     6   1      4.9030921399999992    0.033108699999999998      15.029352429999999
     7   1      6.4757360300000002      7.2933450200000003      15.017294210000001
     8   1      7.0068442900000001              1.31670423             15.02072764
     9   1      8.5174796500000003      3.6985424199999999             14.93320387
    10   1     0.66677937999999992      2.4097113800000001      14.962492559999999
    11   1      2.1223097700000002      2.4145128099999997      14.925039310000001
    12   1              2.87304417      3.7619833400000005      15.008872330000001
    13   1      4.2744574699999989      3.6063866199999999      15.036613410000001
    14   1      4.9786591700000002      2.5486162299999995      14.996140649999999
    15   1      6.4098084899999996      2.4981505499999996             14.98113828
    16   1      7.0205544499999997      3.6418060300000001      15.098829380000002
    17   1              8.45951992      6.1371931899999996      15.030338499999999
    18   1     0.79513434000000005      4.9201598600000001             14.90178804
    19   1      2.2222474000000001      4.8433202199999998             14.91942199
    20   1      2.9211754299999999      6.0885170000000004      15.042248839999997
    21   1      4.3392810299999995      6.2077833399999998      15.035442979999997
    22   1      4.9057203500000002       4.930328349999999      14.912107150000001
    23   1      6.4258466499999995      5.0058472499999995      15.032406519999999
    24   1      7.0938318200000001      6.0967923500000003             14.94570672
