./descriptors_graphene/lmpdatafile.14 (written by ASE) 

24 	 atoms 
1  atom types
0.0      8.5199999999999996  xlo xhi
0.0      7.3785360000000004  ylo yhi
0.0                      30  zlo zhi


Atoms 

     1   1    0.042626339999999992      1.3188540600000001      15.072310609999999
     2   1     0.68994973000000004      7.3643901999999999             14.99743571
     3   1      2.0722136799999999    0.047118149999999991             15.03785675
     4   1      2.8811756399999999      1.2166845900000001      15.066344009999998
     5   1      4.3330773300000001      1.2196138299999999      14.989474230000001
     6   1      4.8943575399999997      7.3482309200000007      15.040144679999999
     7   1              6.43942806    0.052822149999999998             14.95944188
     8   1      7.1623658499999987              1.27537243      15.004896249999998
     9   1    0.012000529999999999      3.6169956099999996             14.99754345
    10   1     0.69984315999999991              2.51572035             14.99225865
    11   1      2.1404919200000001      2.4521212700000001      15.019438739999998
    12   1      2.7909857900000001      3.7239957700000001      14.911959830000001
    13   1      4.2255612100000004      3.6853645799999994      15.014687839999999
    14   1      5.0358628200000002      2.5175270799999998      15.078123259999998
    15   1      6.3106775900000001      2.5118023200000001      14.969946799999999
    16   1      7.1551549899999998      3.6483287999999998      15.029269670000001
    17   1    0.040270689999999998      6.0795483600000004             14.91926541
    18   1     0.71002385999999995              4.84612132      14.932934400000001
    19   1      2.1217846800000002      4.8600936399999988             15.07985229
    20   1      2.7918055299999995      6.1069433000000002      15.086656550000001
    21   1              4.19772809      6.1483077399999999      14.914689279999999
    22   1              4.88113639      4.9394286499999991      15.038977200000001
    23   1      6.2934019899999996      4.9649058899999998             15.08303643
    24   1       7.069285859999999      6.2319780199999988             15.09993914
