./descriptors_graphene/lmpdatafile.9 (written by ASE) 

4 	 atoms 
1  atom types
0.0      4.2600002000000003  xlo xhi
0.0      2.4767999999999999  ylo yhi
0.0                      30  zlo zhi


Atoms 

     1   1      4.1658815000000002      1.1952927799999999      15.040048210000002
     2   1     0.64459630999999984    0.061836500000000003             14.90368222
     3   1               2.1185741    0.073048979999999999             15.04359771
     4   1      2.8512974400000002      1.2634686599999998      15.002043410000001
