./descriptors_graphene/lmpdatafile.20 (written by ASE) 

24 	 atoms 
1  atom types
0.0      8.5199999999999996  xlo xhi
0.0      7.3785360000000004  ylo yhi
0.0                      30  zlo zhi


Atoms 

     1   1      8.4201273400000005              1.17574914      15.011145799999998
     2   1     0.64866016000000004      7.2826531900000004             14.98720426
     3   1              2.16669986      7.3111404599999998              14.9850967
     4   1      2.7625680899999998      1.3036212999999999             14.91501251
     5   1      4.3537331599999991              1.17557248             14.99816188
     6   1      5.0299586100000004    0.018438579999999996      15.037343659999999
     7   1      6.4461536099999996    0.061451889999999995             14.90088815
     8   1      7.0734427599999989      1.1749529700000001             14.98787639
     9   1    0.037964829999999998      3.7887363499999998      15.089832199999998
    10   1     0.67589648000000002      2.5296148299999999      14.982301379999999
    11   1      2.1346074499999999      2.4349544000000001             14.90684443
    12   1      2.7693108499999997              3.62251316      15.004491590000001
    13   1      4.2376851599999998      3.7428986700000002             14.98227022
    14   1      4.9156059599999997      2.5446964900000002             14.96289574
    15   1      6.4332469200000002      2.4274922600000002      14.903605369999999
    16   1      7.0193638499999995      3.6418392700000002             14.95167328
    17   1      8.4935590399999992      6.1599552299999996             15.00248699
    18   1              0.66047707      4.9998275099999994      14.928991030000001
    19   1      2.1666897599999997      4.8848371899999998             15.00762645
    20   1      2.7425865800000002      6.1796262399999993      15.086851749999997
    21   1      4.3272431300000003      6.0991884299999999             14.97296512
    22   1      4.9533603099999999      4.9310595299999997             15.09676251
    23   1      6.3293830599999987      4.9927211500000004      14.922110610000001
    24   1      7.1840659999999987      6.1700461300000002             15.07038771
