./descriptors_graphene/lmpdatafile.6 (written by ASE) 

4 	 atoms 
1  atom types
0.0      4.2600002000000003  xlo xhi
0.0      2.4767999999999999  ylo yhi
0.0                      30  zlo zhi


Atoms 

     1   1    0.056920169999999999      1.1312412700000001      15.063579529999998
     2   1     0.71325987999999996      2.4220276699999999             14.97237513
     3   1      2.1910498199999999      2.4161314200000001      15.026856090000001
     4   1      2.8047860500000001      1.2491339699999999      15.007315290000001
