./descriptors_graphene/lmpdatafile.8 (written by ASE) 

4 	 atoms 
1  atom types
0.0      4.2600002000000003  xlo xhi
0.0      2.4767999999999999  ylo yhi
0.0                      30  zlo zhi


Atoms 

     1   1      4.2511009700000004              1.15784372      14.950597139999999
     2   1     0.65883725999999998      2.3917926199999999      14.948770639999999
     3   1      2.0802076899999999      2.3835950800000001             15.04187512
     4   1      2.8133709800000002      1.2605541300000001      14.906953290000001
