./descriptors_graphene/lmpdatafile.15 (written by ASE) 

24 	 atoms 
1  atom types
0.0      8.5199999999999996  xlo xhi
0.0      7.3785360000000004  ylo yhi
0.0                      30  zlo zhi


Atoms 

     1   1      8.5198378599999991      1.2501359400000001             15.04321287
     2   1     0.65323547000000004      7.3134689900000005              15.0606314
     3   1      2.1339228800000001    0.048505909999999999             15.00472149
     4   1      2.9048681199999997      1.2773342199999997      14.981196369999999
     5   1      4.2412256399999997      1.3094106299999999      14.905087010000001
     6   1      4.8711102500000001      7.3080147300000009             14.95240096
     7   1      6.4615219000000002    0.052826089999999999      14.916580720000001
     8   1      7.1727391300000001              1.16822625             14.99910086
     9   1    0.035507339999999998      3.7099996800000001      15.036234909999997
    10   1     0.65001169999999986      2.5060897199999999      14.990343660000001
    11   1      2.1351195399999998      2.4271025299999995             15.08944868
    12   1      2.7420245900000002      3.7561851100000001             14.97481127
    13   1      4.2488939999999999      3.6560792599999998      15.063914929999999
    14   1      5.0109088699999988      2.4675470199999996      15.001247269999999
    15   1      6.3530436899999998              2.50471661      14.994999679999999
    16   1      7.1605417699999991      3.7766209399999995             15.01948844
    17   1    0.061704910000000002       6.219985649999999      15.039506039999999
    18   1     0.70723636000000001      4.8772433099999999             14.92321952
    19   1      2.1037066499999999      4.8867547599999988      15.061797009999998
    20   1      2.8137136599999999      6.2317316099999989      14.913415029999998
    21   1              4.16063385      6.1659352399999996      14.990352550000001
    22   1      4.8953717399999999      4.8833671499999989             14.95468561
    23   1      6.3624833000000001      4.8354299000000003      15.075807450000001
    24   1       7.065042609999999      6.0612285799999999             14.91387531
