./descriptors_graphene/lmpdatafile.13 (written by ASE) 

24 	 atoms 
1  atom types
0.0      8.5199999999999996  xlo xhi
0.0      7.3785360000000004  ylo yhi
0.0                      30  zlo zhi


Atoms 

     1   1              0.02782838      1.2405158300000001      15.004132659999998
     2   1     0.73034297999999997    0.025128790000000002      15.080844040000001
     3   1      2.1974028099999998      7.2802462100000005             14.91626413
     4   1      2.8764502300000001               1.2730937      15.096480870000002
     5   1              4.16388815              1.13119773      14.967723139999999
     6   1              4.94440276      7.3036935400000003      15.003928819999999
     7   1      6.3450363400000001              0.04716306      15.074686700000001
     8   1      7.1640847799999987      1.1321449800000001      15.064670989999998
     9   1    0.011706349999999999      3.7004840899999993             15.04829183
    10   1     0.68510289999999996      2.4502464599999998      14.990794960000001
    11   1      2.2119193399999997      2.5443576700000001      14.935364890000001
    12   1      2.8828855600000001      3.7849649300000001      15.082550319999998
    13   1      4.2031575200000004      3.7684628899999999      14.976874090000001
    14   1      4.9236954999999991              2.55844973      15.025814240000003
    15   1      6.4853306399999999              2.43661846             15.04240933
    16   1              7.19617942      3.6948889299999994      14.968848230000001
    17   1      8.4810818799999996       6.155238409999999      15.075220879999998
    18   1     0.71960111000000004      4.9386960200000001      14.923577180000001
    19   1      2.1615550799999999      4.9747227899999995             14.99128374
    20   1      2.8597421099999996      6.1763524099999998      15.063696519999999
    21   1      4.1716783099999999      6.0665959599999999             14.91272921
    22   1      4.9228197900000001              5.00893911      14.949665329999998
    23   1      6.4157355999999988      4.9898611500000003      15.060725520000002
    24   1      7.1388806999999987      6.1577728900000004             14.91198621
