./descriptors_graphene/lmpdatafile.12 (written by ASE) 

24 	 atoms 
1  atom types
0.0      8.5199999999999996  xlo xhi
0.0      7.3785360000000004  ylo yhi
0.0                      30  zlo zhi


Atoms 

     1   1      8.5167591900000001              1.15258587      15.014025889999999
     2   1     0.64306563000000005    0.074478870000000003      15.048961870000001
     3   1      2.1492361299999998    0.087407409999999991             14.93025641
     4   1               2.7569808              1.32448038             15.04523977
     5   1      4.2767706900000002      1.2803435999999999      15.041592629999998
     6   1      4.9571971399999999    0.060350510000000003             15.06913789
     7   1      6.3759290200000001      7.3294752900000004             14.96658371
     8   1              7.06862353              1.19514736             14.96549315
     9   1  9.5119999999999984e-05      3.7328416799999999      15.087706270000002
    10   1     0.76149224999999998      2.4479040599999999      15.060750129999999
    11   1      2.1487544999999999              2.53232992      15.028846639999998
    12   1      2.8049057199999998              3.64509857      15.045777759999998
    13   1      4.2675532399999998      3.6688714599999996             14.92754266
    14   1      5.0692904099999989               2.4303344      15.026977430000002
    15   1              6.29635093              2.48083937      14.994102180000001
    16   1      7.0550058699999996      3.7634861100000001             14.94770832
    17   1      8.5107912999999993       6.106229299999999      15.033064580000001
    18   1     0.64685473000000004      4.8649543299999998      14.937731619999997
    19   1      2.0869759600000002      4.9744638400000003      15.097184199999999
    20   1               2.8043966      6.2354331600000004      14.941546819999999
    21   1      4.1640426599999998      6.0944448600000003      15.010635009999998
    22   1      4.8770825100000001      4.8473971199999992      14.993313389999999
    23   1      6.4086191699999997      4.8577716899999999      15.077517569999999
    24   1      7.0255886499999995      6.0906674699999996      14.947217269999999
