./descriptors_graphene/lmpdatafile.2 (written by ASE) 

4 	 atoms 
1  atom types
0.0      4.2600002000000003  xlo xhi
0.0      2.4767999999999999  ylo yhi
0.0                      30  zlo zhi


Atoms 

     1   1      4.2293341200000008      1.1676712199999999             15.01694786
     2   1              0.62692101              0.02660239             14.97194227
     3   1      2.0984556699999999   0.0066572100000000002      15.065967049999998
     4   1      2.9207923600000001      1.2377097500000001      15.066405709999998
