./descriptors_graphene/lmpdatafile.10 (written by ASE) 

4 	 atoms 
1  atom types
0.0      4.2600002000000003  xlo xhi
0.0      2.4767999999999999  ylo yhi
0.0                      30  zlo zhi


Atoms 

     1   1    0.075229519999999994              1.21653459              14.9759004
     2   1     0.70656448999999999    0.068812970000000001      14.949744859999999
     3   1      2.2229282799999996      2.4649361699999996      15.036393229999998
     4   1      2.8977677900000001              1.21655007      14.985029089999999
