./descriptors_graphene/lmpdatafile.18 (written by ASE) 

24 	 atoms 
1  atom types
0.0      8.5199999999999996  xlo xhi
0.0      7.3785360000000004  ylo yhi
0.0                      30  zlo zhi


Atoms 

     1   1              8.42967187      1.2622415899999999      15.065760129999999
     2   1     0.66615729999999984      7.3213224100000005      15.030577579999997
     3   1      2.2160099199999999      7.3124537900000002      14.968797309999999
     4   1      2.7485755699999999      1.1936919399999997             15.00851449
     5   1              4.24282775      1.2269290500000001             14.90290912
     6   1      5.0634033899999995    0.015296089999999998      14.984743890000001
     7   1      6.2973928900000002    0.092081189999999993             15.07020966
     8   1      7.0889392999999989      1.2203631399999999             15.09100495
     9   1      8.4285554699999992              3.68615585             14.93239556
    10   1     0.79623915999999995      2.4620928800000002      15.086869220000001
    11   1      2.0885927899999999      2.4350007200000001             15.09469253
    12   1      2.8561047199999998      3.6489295099999994      15.001688899999998
    13   1      4.3341148799999996      3.6647040599999996      15.006278149999998
    14   1       4.970859879999999              2.43223828             15.07391101
    15   1      6.4203974600000002      2.4779698799999998      15.074277029999998
    16   1      7.1474402499999989      3.6784534199999994      15.029510320000002
    17   1              0.02863361              6.16931823             14.96939074
    18   1     0.61049167000000004      4.8748582299999992      15.029584340000001
    19   1      2.1700294299999996       4.982063619999999             15.08466494
    20   1              2.92872851      6.2213006399999999      14.957484989999998
    21   1              4.29957981              6.08052437             15.08638491
    22   1      4.9492067200000003      4.9427203200000003      15.073293729999998
    23   1      6.3054977000000001      5.0132877399999991      14.919360040000001
    24   1      7.1682797300000001      6.0567768199999987      15.088352049999999
