./descriptors_graphene/lmpdatafile.17 (written by ASE) 

24 	 atoms 
1  atom types
0.0      8.5199999999999996  xlo xhi
0.0      7.3785360000000004  ylo yhi
0.0                      30  zlo zhi


Atoms 

     1   1      8.4822515000000003      1.2278945800000001      15.091681080000001
     2   1      0.6715342299999999     0.06668325999999998      15.061495269999998
     3   1      2.0785133999999998    0.043383610000000003      15.093510259999999
     4   1      2.8211912899999994      1.2468155400000001             14.98267018
     5   1      4.2474442999999997              1.18235873      15.058998190000001
     6   1      5.0335057499999998      7.3427457000000009             14.90194352
     7   1      6.3563744399999997              7.28488486             14.90486493
     8   1      7.1421894299999993              1.28906812      14.916374749999999
     9   1      8.4384508899999986      3.6997653499999998      15.072072859999999
    10   1     0.64839670000000005              2.38235383      14.983118960000001
    11   1              2.11883146      2.4120455199999999      14.980854000000001
    12   1      2.8559163799999996      3.5970377299999998      14.951692469999999
    13   1      4.2315699699999998      3.6733485899999998             14.96052199
    14   1              5.02056931      2.4391290299999997      15.069489289999998
    15   1              6.35897896      2.4778427199999999      15.082083109999999
    16   1      7.0180189200000003      3.7040039799999995      15.037805199999998
    17   1              8.43390898      6.2389311699999999             15.07649559
    18   1     0.69188607999999996      5.0153963600000004      15.046383820000001
    19   1      2.0715701200000001      4.8762986399999999             15.00561607
    20   1      2.7783719800000002      6.2311080099999989      15.009160289999999
    21   1      4.3548887599999997      6.1434223399999999      15.097864859999998
    22   1      4.9564364400000001      4.8996369999999994      15.072146589999997
    23   1      6.3172870100000003      4.8887373299999997             14.95694477
    24   1      7.0114645600000003      6.1306723200000004      15.019886209999999
