./descriptors_graphene/lmpdatafile.7 (written by ASE) 

4 	 atoms 
1  atom types
0.0      4.2600002000000003  xlo xhi
0.0      2.4767999999999999  ylo yhi
0.0                      30  zlo zhi


Atoms 

     1   1      4.2069401800000001      1.1397331500000001      14.919960550000001
     2   1     0.77125350999999998    0.076322269999999998             14.90217352
     3   1              2.15208669      2.4612466199999998      14.937280899999999
     4   1              2.82732809      1.1731591800000001      15.004317269999998
