./descriptors_graphene/lmpdatafile.16 (written by ASE) 

24 	 atoms 
1  atom types
0.0      8.5199999999999996  xlo xhi
0.0      7.3785360000000004  ylo yhi
0.0                      30  zlo zhi


Atoms 

     1   1    0.025224489999999999      1.3222630900000001      14.911347249999999
     2   1     0.71437750999999994    0.015966080000000001      14.956035189999998
     3   1      2.1998223299999995    0.096009739999999996      15.040069500000001
     4   1      2.8709218099999996              1.24900565      14.954001910000001
     5   1      4.2277889100000001      1.2546372400000001      15.090976669999998
     6   1      4.8811552599999999       7.377982460000001             15.01079275
     7   1      6.4506829799999998      7.3510535800000003             14.95734637
     8   1              7.11392106      1.1636732299999999              14.9296273
     9   1    0.024508839999999997              3.66377628      15.035336709999997
    10   1     0.62116274000000005      2.4646449800000001      14.900409890000001
    11   1      2.0628900099999998      2.4988931000000001      14.919314549999999
    12   1      2.9391652399999995      3.5918554700000001             15.02909492
    13   1      4.3236444799999996      3.7707292400000005      15.064718689999999
    14   1       4.929351089999999      2.5511851899999995             14.97918851
    15   1              6.36759729      2.5208447500000002             14.90488384
    16   1      7.1624328500000001      3.7309300799999998      15.045772649999998
    17   1    0.021647109999999997      6.1753613700000001              14.9114234
    18   1     0.66933793999999991      4.9735176499999998      14.948235499999999
    19   1      2.0744326200000001      4.9920505300000002      15.040819770000001
    20   1      2.8629739500000002      6.1936773499999989             14.91413315
    21   1      4.2079326000000004      6.0731758299999994             14.96324725
    22   1      5.0242848499999999      5.0143551000000004      14.977580740000001
    23   1              6.45205348      4.9538360999999993      14.940683910000001
    24   1      7.0109856999999991      6.0692733299999997      15.042405769999998
