4
Lattice="4.2600002 0.0 0.0 0.0 2.4768 0.0 0.0 0.0 30.0" Properties=species:S:1:pos:R:3:id:I:1:type:I:1:forces:R:3 comment="# Graphene data" energy=-27.36241416426233 stress="-0.04059695793061247 0.02719001766384188 -0.0020636463477843666 0.02719001766384188 -0.006353122111705926 -0.0006271735496095457 -0.0020636463477843666 -0.0006271735496095457 2.3711360093742087e-05" free_energy=-27.36241416426233 pbc="T T T"
C        0.06527218       1.14533560      15.00109016        1        6      -4.62584000      12.94990000      -0.09384050
C        0.77531987       0.08270331      14.98704607        2        6      -4.10048000     -12.63920000       0.16636400
C        2.05965312      -0.03997731      15.06477386        3        6      13.38430000       4.45206000      -0.13678300
C        2.92381208       1.30189923      15.05620701        4        6      -4.65802000      -4.76274000       0.06425990
