4
Lattice="4.2600002 0.0 0.0 0.0 2.4768 0.0 0.0 0.0 30.0" Properties=species:S:1:pos:R:3:id:I:1:type:I:1:forces:R:3 comment="# Graphene data" energy=-29.27357436973824 stress="-0.002530723462244084 -0.005667910579523695 0.0005590783769944223 -0.005667910579523695 0.004369625551611244 -0.001017823557206507 0.0005590783769944223 -0.001017823557206507 0.0006582721055787822" free_energy=-29.27357436973824 pbc="T T T"
C       -0.09684228       1.28255546      14.93686588        1        6       1.43791000      -2.91150000       1.64913000
C        0.63191732      -0.01753914      15.06221420        2        6       0.44229800       4.33105000      -1.37538000
C        2.07239794       0.08961148      15.07712667        3        6      -1.27750000      -1.83545000      -0.22694600
C        2.76788399       1.31504338      15.02517803        4        6      -0.60271100       0.41589700      -0.04680400
