4
Lattice="4.2600002 0.0 0.0 0.0 2.4768 0.0 0.0 0.0 30.0" Properties=species:S:1:pos:R:3:id:I:1:type:I:1:forces:R:3 comment="# Graphene data" energy=-29.33631213613416 stress="-0.0011127685488804531 0.006946228665062081 0.0008240810175589425 0.006946228665062081 0.0029825160665928577 0.00022200735948212875 0.0008240810175589425 0.00022200735948212875 0.00042337931862723537" free_energy=-29.33631213613416 pbc="T T T"
C        0.01389702       1.22858274      14.96506931        1        6       2.07967000       2.80860000       1.13803000
C        0.76553750       0.03517754      15.05985927        2        6      -1.10922000      -2.17749000      -0.96882700
C        2.19463155       0.02370535      15.07350799        3        6      -1.73258000       2.45779000      -0.52904900
C        2.86635787       1.29825285      15.00728138        4        6       0.76212900      -3.08891000       0.35985000
