4
Lattice="4.2600002 0.0 0.0 0.0 2.4768 0.0 0.0 0.0 30.0" Properties=species:S:1:pos:R:3:id:I:1:type:I:1:forces:R:3 comment="# Graphene data" energy=-28.13342409112336 stress="-0.009209004954074262 0.009727694647717094 -0.001738213778505222 0.009727694647717094 -0.015510611372899146 0.0006162803206200526 -0.001738213778505222 0.0006162803206200526 0.0015188080158819724" free_energy=-28.13342409112336 pbc="T T T"
C        0.05760491       1.21252180      15.04696444        1        6      -5.25504000      10.11300000      -1.51065000
C        0.68354789       0.09249854      15.01026798        2        6       3.67622000     -10.78650000       1.34220000
C        2.07023951       0.05237715      15.08592171        3        6       5.50798000      -3.21493000      -2.59169000
C        2.90151477       1.19216997      14.92721028        4        6      -3.92917000       3.88844000       2.76013000
