4
Lattice="4.2600002 0.0 0.0 0.0 2.4768 0.0 0.0 0.0 30.0" Properties=species:S:1:pos:R:3:id:I:1:type:I:1:forces:R:3 comment="# Graphene data" energy=-29.14290274770262 stress="-0.006091805627168452 0.004399640910208374 0.0012182581053517536 0.004399640910208374 0.004572492252127546 0.001549557587389318 0.0012182581053517536 0.001549557587389318 0.0011053334028964686" free_energy=-29.14290274770262 pbc="T T T"
C       -0.02149811       1.14230487      14.92483932        1        6       3.75198000       3.92377000       2.21131000
C        0.75006128      -0.02144564      15.06823842        2        6      -2.05466000      -3.26285000      -2.34793000
C        2.16328619      -0.01778112      14.96454514        3        6      -0.43431200      -0.85594700       1.13297000
C        2.85726523       1.20874658      14.98322357        4        6      -1.26301000       0.19502500      -0.99633900
