4
Lattice="4.2600002 0.0 0.0 0.0 2.4768 0.0 0.0 0.0 30.0" Properties=species:S:1:pos:R:3:id:I:1:type:I:1:forces:R:3 comment="# Graphene data" energy=-28.68954100587937 stress="-0.020522817385443804 0.00873613823770687 0.0009756526586095645 0.00873613823770687 0.005606085666113688 -0.0012543270421989958 0.0009756526586095645 -0.0012543270421989958 0.000161271049783847" free_energy=-28.68954100587937 pbc="T T T"
C        0.02385697       1.17187935      14.99943650        1        6       2.00462000       6.15625000      -0.30976800
C        0.74523777       0.04335091      14.95777378        2        6      -0.98138200      -7.28759000       0.51096300
C        2.10801299      -0.07314232      15.01788824        3        6       6.42623000      -0.50212900       0.38532000
C        2.93638005       1.13005886      15.06229874        4        6      -7.44947000       1.63346000      -0.58651500
