4
Lattice="4.2600002 0.0 0.0 0.0 2.4768 0.0 0.0 0.0 30.0" Properties=species:S:1:pos:R:3:id:I:1:type:I:1:forces:R:3 comment="# Graphene data" energy=-27.81010785244479 stress="0.005679599131328317 -0.010125328744395007 0.0019211025552068055 -0.010125328744395007 -0.039680364425001 -0.0009516928899739773 0.0019211025552068055 -0.0009516928899739773 0.0005241409476529346" free_energy=-27.81010785244479 pbc="T T T"
C        0.00965478       1.25182420      15.00938498        1        6      -5.19116000       2.22654000      -0.47173400
C        0.63315137       0.06196241      14.95037683        2        6       6.02429000      -5.26455000       1.42718000
C        2.18998630       0.00627667      15.09113205        3        6     -10.63170000     -10.65050000      -1.14602000
C        2.74965632       1.13470960      15.07230195        4        6       9.79859000      13.68850000       0.19057500
