4
Lattice="4.2600002 0.0 0.0 0.0 2.4768 0.0 0.0 0.0 30.0" Properties=species:S:1:pos:R:3:id:I:1:type:I:1:forces:R:3 comment="# Graphene data" energy=-27.77903427848874 stress="-0.014441525099640506 -0.022833743194144804 -0.0049414342846238885 -0.022833743194144804 -0.016936408281037346 -0.007308804084723535 -0.0049414342846238885 -0.007308804084723535 0.0009747935602524858" free_energy=-27.77903427848874 pbc="T T T"
C       -0.05833660       1.32111622      15.08765262        1        6       4.20684000      -4.32718000       0.51831400
C        0.68632881       0.03127779      15.06153184        2        6       1.86150000       3.00092000      -0.97677600
C        2.20071977       0.09424265      14.91844266        3        6      -9.46711000     -13.84970000       1.94627000
C        2.83406520       1.17034309      15.09083978        4        6       3.39876000      15.17600000      -1.48781000
