4
Lattice="4.2600002 0.0 0.0 0.0 2.4768 0.0 0.0 0.0 30.0" Properties=species:S:1:pos:R:3:id:I:1:type:I:1:forces:R:3 comment="# Graphene data" energy=-28.13485171255439 stress="-0.039358124417913094 -0.009171062861952673 0.0025899241074150985 -0.009171062861952673 0.013997264612083591 1.4826541922700343e-05 0.0025899241074150985 1.4826541922700343e-05 0.0004285467422240403" free_energy=-28.13485171255439 pbc="T T T"
C        0.03627336       1.20347630      15.04730015        1        6      -0.81866200      -0.76429000      -1.57968000
C        0.78726207      -0.05472478      14.96248349        2        6     -13.98880000       1.82156000       1.51176000
C        2.03436881       0.08692785      14.91213236        3        6      16.53180000      -3.53818000      -0.56274800
C        2.85784997       1.25495396      14.91491221        4        6      -1.72431000       2.48091000       0.63066700
