4
Lattice="4.2600002 0.0 0.0 0.0 2.4768 0.0 0.0 0.0 30.0" Properties=species:S:1:pos:R:3:id:I:1:type:I:1:forces:R:3 comment="# Graphene data" energy=-29.01820786439126 stress="0.00850274121020052 0.0030238013024880047 0.0011366014272633374 0.0030238013024880047 -0.01489767451109271 -0.0014653654197751686 0.0011366014272633374 -0.0014653654197751686 0.0002561179553179754" free_energy=-29.01820786439126 pbc="T T T"
C        0.06019641       1.19423315      14.95777587        1        6      -3.07149000      -1.65533000       0.30057300
C        0.74395455      -0.07376371      15.02094958        2        6       1.21348000       1.95319000      -0.52108400
C        2.19989025      -0.07331320      14.99959990        3        6      -5.06917000       4.45694000      -0.55250500
C        2.79432828       1.21463733      14.92537864        4        6       6.92718000      -4.75480000       0.77301500
