4
Lattice="4.2600002 0.0 0.0 0.0 2.4768 0.0 0.0 0.0 30.0" Properties=species:S:1:pos:R:3:id:I:1:type:I:1:forces:R:3 comment="# Graphene data" energy=-29.0781809633376 stress="-0.008317844733139948 -0.004808772211791637 0.0007248659779188529 -0.004808772211791637 0.005481904341851627 -0.0009923710844875824 0.0007248659779188529 -0.0009923710844875824 0.0013820975833261078" free_energy=-29.0781809633376 pbc="T T T"
C        0.01640941       1.18698794      14.95334937        1        6      -1.71900000      -0.50612000       2.31030000
C        0.73499858      -0.05819994      15.07149734        2        6      -4.52965000       0.56990000      -2.08288000
C        2.08140152      -0.03002571      14.97200390        3        6       4.17169000      -2.78659000       1.82752000
C        2.79780218       1.16260068      15.06307808        4        6       2.07696000       2.72281000      -2.05494000
