4
Lattice="4.2600002 0.0 0.0 0.0 2.4768 0.0 0.0 0.0 30.0" Properties=species:S:1:pos:R:3:id:I:1:type:I:1:forces:R:3 comment="# Graphene data" energy=-28.82676094400074 stress="-0.004617496429359592 -0.008848467338950195 2.5494556230798166e-05 -0.008848467338950195 -0.005218683710465692 0.0001481674280985243 2.5494556230798166e-05 0.0001481674280985243 0.0002484460926958562" free_energy=-28.82676094400074 pbc="T T T"
C        0.04515716       1.24229994      15.05292974        1        6      -1.73799000      -6.68220000      -0.09126550
C        0.66944353      -0.07777677      15.03732020        2        6       5.40448000       7.64114000      -0.38257300
C        2.12042121       0.00478138      14.93988351        3        6       2.61476000      -0.28975800       1.05050000
C        2.93333089       1.25545981      14.99372492        4        6      -6.28125000      -0.66917400      -0.57665600
