4
Lattice="4.2600002 0.0 0.0 0.0 2.4768 0.0 0.0 0.0 30.0" Properties=species:S:1:pos:R:3:id:I:1:type:I:1:forces:R:3 comment="# Graphene data" energy=-28.91367794496336 stress="-0.011553819105319121 0.008803210638066803 -9.153489799818637e-05 0.008803210638066803 0.0015813426608960938 -0.00011427912176030574 -9.153489799818637e-05 -0.00011427912176030574 0.00017284174371459983" free_energy=-28.91367794496336 pbc="T T T"
C       -0.01149740       1.29692333      15.05874720        1        6      -2.90189000      -0.83903200      -0.92041500
C        0.68957418       0.05066348      15.00048633        2        6      -3.55240000      -1.02235000       0.90125200
C        2.03809771      -0.07912895      15.03333621        3        6       3.05844000       7.66844000      -0.39755400
C        2.76161532       1.26577632      15.02921883        4        6       3.39584000      -5.80705000       0.41671700
