4
Lattice="4.2600002 0.0 0.0 0.0 2.4768 0.0 0.0 0.0 30.0" Properties=species:S:1:pos:R:3:id:I:1:type:I:1:forces:R:3 comment="# Graphene data" energy=-28.76152979155366 stress="0.006168547843205345 0.009942889540368718 0.000687928385908341 0.009942889540368718 -0.017697883029690924 -0.0005730613732019226 0.000687928385908341 -0.0005730613732019226 0.00012145297625527442" free_energy=-28.76152979155366 pbc="T T T"
C        0.08045256       1.19942729      15.01796350        1        6      -6.95341000       7.36609000      -0.25423500
C        0.64304010       0.03151806      14.98277777        2        6       8.64211000      -7.96706000       0.04699900
C        2.15449191      -0.03586364      14.95006065        3        6      -1.15019000       1.70537000       0.63889400
C        2.88930347       1.22154616      15.00269145        4        6      -0.53850300      -1.10439000      -0.43165800
