4
Lattice="4.2600002 0.0 0.0 0.0 2.4768 0.0 0.0 0.0 30.0" Properties=species:S:1:pos:R:3:id:I:1:type:I:1:forces:R:3 comment="# Graphene data" energy=-28.4534498968054 stress="-0.012364076938348581 0.01530243509712571 0.0005756422842874381 0.01530243509712571 -0.006008500459791298 0.0034281295263487877 0.0005756422842874381 0.0034281295263487877 0.0009145807597216831" free_energy=-28.4534498968054 pbc="T T T"
C       -0.05104426       1.16291578      14.92031134        1        6       4.03159000       8.30945000       1.91362000
C        0.75643630       0.08025720      15.01744087        2        6      -1.47848000      -7.58685000      -1.86774000
C        2.17988298       0.00268113      14.94826636        3        6      -3.05561000       4.30800000       1.59207000
C        2.83473836       1.29173321      15.01347048        4        6       0.50250300      -5.03060000      -1.63795000
