4
Lattice="4.2600002 0.0 0.0 0.0 2.4768 0.0 0.0 0.0 30.0" Properties=species:S:1:pos:R:3:id:I:1:type:I:1:forces:R:3 comment="# Graphene data" energy=-27.78616669781348 stress="-0.0023678869666888887 0.00615564583353706 -0.002878265590834366 0.00615564583353706 -0.029089287255789614 -0.0038868620380519817 -0.002878265590834366 -0.0038868620380519817 0.0005630073930138292" free_energy=-27.78616669781348 pbc="T T T"
C        0.09243691       1.29014852      14.91227686        1        6     -10.55240000      -1.53261000       0.75867000
C        0.62197932       0.03841006      14.99109357        2        6       6.88786000      -0.25159600      -0.13570500
C        2.04040002      -0.08513001      15.08362272        3        6       1.23435000      10.62160000      -1.19164000
C        2.82039212       1.32462822      14.97675424        4        6       2.43018000      -8.83743000       0.56867300
