4
Lattice="4.2600002 0.0 0.0 0.0 2.4768 0.0 0.0 0.0 30.0" Properties=species:S:1:pos:R:3:id:I:1:type:I:1:forces:R:3 comment="# Graphene data" energy=-28.90987750592153 stress="0.010070013612852096 0.0006824064116297451 0.0002689900701855422 0.0006824064116297451 -0.018021472660600297 0.00024246968690284337 0.0002689900701855422 0.00024246968690284337 0.0004382896137922761" free_energy=-28.90987750592153 pbc="T T T"
C        0.07412416       1.16936590      15.06284104        1        6      -8.34363000      -0.12334200      -0.00937505
C        0.63796357      -0.07146502      15.05073832        2        6       6.29871000       0.22430600      -0.72221400
C        2.10047256      -0.07403894      14.93178497        3        6      -1.25085000       1.00914000       1.38792000
C        2.78460395       1.17955466      15.01039658        4        6       3.29577000      -1.11011000      -0.65633500
