4
Lattice="4.2600002 0.0 0.0 0.0 2.4768 0.0 0.0 0.0 30.0" Properties=species:S:1:pos:R:3:id:I:1:type:I:1:forces:R:3 comment="# Graphene data" energy=-27.44907221985347 stress="-0.016872056383800932 0.03114596630426206 -0.0005509283964748202 0.03114596630426206 -0.02490802325307913 0.002589624442937535 -0.0005509283964748202 0.002589624442937535 0.0006647192075059114" free_energy=-27.44907221985347 pbc="T T T"
C        0.01982311       1.15014715      15.02106312        1        6      -2.67249000      12.70980000       0.19104500
C        0.70172262       0.06942682      14.94210866        2        6       6.65284000     -12.61160000       0.08243020
C        2.20872359      -0.09752269      14.94374201        3        6      -6.56507000      11.92560000       1.21079000
C        2.88365009       1.29127708      15.09536160        4        6       2.58472000     -12.02380000      -1.48427000
