4
Lattice="4.2600002 0.0 0.0 0.0 2.4768 0.0 0.0 0.0 30.0" Properties=species:S:1:pos:R:3:id:I:1:type:I:1:forces:R:3 comment="# Graphene data" energy=-28.28080325270945 stress="-0.02256285023898804 -0.019593870106434985 0.0018077241139412075 -0.019593870106434985 -0.0030349505911184214 -0.0005351067966409806 0.0018077241139412075 -0.0005351067966409806 0.0004141872075363496" free_energy=-28.28080325270945 pbc="T T T"
C        0.03979806       1.24280650      14.96128855        1        6      -1.75132000      -3.06439000       1.35960000
C        0.78609389      -0.04719020      15.06012994        2        6      -7.29648000       3.77997000      -1.39079000
C        2.10375053       0.07119042      14.98961316        3        6       3.16339000     -10.80560000       0.33172600
C        2.80566705       1.16425857      14.97138043        4        6       5.88442000      10.09000000      -0.30053500
