4
Lattice="4.2600002 0.0 0.0 0.0 2.4768 0.0 0.0 0.0 30.0" Properties=species:S:1:pos:R:3:id:I:1:type:I:1:forces:R:3 comment="# Graphene data" energy=-28.32891973288483 stress="-0.025858649093080287 -0.015225806129294351 -0.0015168446643132494 -0.015225806129294351 0.0003711773598831817 0.0016539491718609686 -0.0015168446643132494 0.0016539491718609686 0.0002698031622243508" free_energy=-28.32891973288483 pbc="T T T"
C       -0.02821557       1.24126571      15.04467674        1        6       6.66603000      -6.70923000      -1.06587000
C        0.65677979      -0.08471458      14.96337103        2        6       5.63236000       6.27533000       1.09296000
C        2.19877154      -0.00710325      14.96534494        3        6      -3.30212000      -4.62002000      -0.34140700
C        2.93712483       1.15380220      14.96952175        4        6      -8.99626000       5.05393000       0.31431500
