4
Lattice="4.2600002 0.0 0.0 0.0 2.4768 0.0 0.0 0.0 30.0" Properties=species:S:1:pos:R:3:id:I:1:type:I:1:forces:R:3 comment="# Graphene data" energy=-29.14714396933062 stress="-0.006732326815602938 -0.004665008475418083 0.0009147932532864695 -0.004665008475418083 0.004695860360698803 -0.0006882101747530731 0.0009147932532864695 -0.0006882101747530731 0.0003427605118656194" free_energy=-29.14714396933062 pbc="T T T"
C       -0.05092569       1.20873886      14.95378256        1        6       5.11227000      -2.00229000       1.12192000
C        0.72698115      -0.08762057      15.04303548        2        6      -1.08550000       3.83356000      -1.19347000
C        2.17529292       0.03840966      15.01411581        3        6      -2.81050000      -2.16582000      -0.08068000
C        2.84491282       1.26243196      14.97278603        4        6      -1.21626000       0.33455800       0.15223500
