4
Lattice="4.2600002 0.0 0.0 0.0 2.4768 0.0 0.0 0.0 30.0" Properties=species:S:1:pos:R:3:id:I:1:type:I:1:forces:R:3 comment="# Graphene data" energy=-28.52754242302631 stress="-0.02815962931763426 -0.004379690724398906 0.004845805025998095 -0.004379690724398906 0.011825161089845713 -0.00019998104874986182 0.004845805025998095 -0.00019998104874986182 2.75746895178446e-05" free_energy=-28.52754242302631 pbc="T T T"
C       -0.09292589       1.26600789      14.90791363        1        6      12.63810000      -2.97949000       0.26672600
C        0.73317132      -0.05205225      14.95007814        2        6      -3.79459000       3.52489000      -0.32439100
C        2.12581792       0.04091827      15.08034036        3        6       1.96575000       0.07869160      -0.29983900
C        2.89154580       1.29083289      15.06637231        4        6     -10.80920000      -0.62409200       0.35750500
