4
Lattice="4.2600002 0.0 0.0 0.0 2.4768 0.0 0.0 0.0 30.0" Properties=species:S:1:pos:R:3:id:I:1:type:I:1:forces:R:3 comment="# Graphene data" energy=-29.03542726377455 stress="-0.016987522633674177 -0.010123346157548957 -0.00011387830708102978 -0.010123346157548957 0.008598597541162024 -0.0003172740421402964 -0.00011387830708102978 -0.0003172740421402964 3.784799321502648e-05" free_energy=-29.03542726377455 pbc="T T T"
C        0.04293902       1.24888927      14.92788558        1        6       1.03287000      -5.07832000       0.41918400
C        0.80037951      -0.09139209      14.94979921        2        6      -4.75118000       5.71135000      -0.30028000
C        2.13956269       0.00127804      14.96741947        3        6       6.05158000      -0.73473000       0.11972500
C        2.90397017       1.23567989      14.97034973        4        6      -2.33327000       0.10170000      -0.23862900
