4
Lattice="4.2600002 0.0 0.0 0.0 2.4768 0.0 0.0 0.0 30.0" Properties=species:S:1:pos:R:3:id:I:1:type:I:1:forces:R:3 comment="# Graphene data" energy=-28.41285773973205 stress="-0.010974031048262629 -0.014627366621053095 -0.0004764677701471899 -0.014627366621053095 -0.012294788189353874 -0.00011404633495077835 -0.0004764677701471899 -0.00011404633495077835 0.00024436569548542307" free_energy=-28.41285773973205 pbc="T T T"
C       -0.05688321       1.28119678      15.07493135        1        6       2.40543000      -8.06220000      -0.19607800
C        0.64473592      -0.06509487      15.02240503        2        6       5.26286000       7.36935000       0.22417500
C        2.22015923       0.00772867      15.01395149        3        6      -7.16260000      -5.13969000       0.81512200
C        2.84492603       1.18946954      15.09375114        4        6      -0.50568700       5.83254000      -0.84321900
