4
Lattice="4.2600002 0.0 0.0 0.0 2.4768 0.0 0.0 0.0 30.0" Properties=species:S:1:pos:R:3:id:I:1:type:I:1:forces:R:3 comment="# Graphene data" energy=-28.2030781914869 stress="-0.007923276754872512 0.02241357054604996 -0.00038504351902365165 0.02241357054604996 -0.01892150351963526 0.00038288931829996866 -0.00038504351902365165 0.00038288931829996866 0.0003702186868202922" free_energy=-28.2030781914869 pbc="T T T"
C       -0.07821737       1.25697032      15.08038230        1        6       0.21675900       0.51589500      -1.11355000
C        0.65160844       0.02129258      14.99089839        2        6      -0.22494600      -1.17014000       1.40698000
C        2.09073341      -0.09360100      15.06509807        3        6      -7.03317000      15.57710000      -0.58577200
C        2.74428930       1.31851391      15.07956628        4        6       7.04136000     -14.92280000       0.29235100
