4
Lattice="4.2600002 0.0 0.0 0.0 2.4768 0.0 0.0 0.0 30.0" Properties=species:S:1:pos:R:3:id:I:1:type:I:1:forces:R:3 comment="# Graphene data" energy=-28.39327258273099 stress="0.0004084760693159519 0.000744261854713304 -0.0012641542511050757 0.000744261854713304 -0.01948249929767986 0.006514574874701555 -0.0012641542511050757 0.006514574874701555 0.0009068120318672328" free_energy=-28.39327258273099 pbc="T T T"
C        0.01923680       1.20570021      14.90748383        1        6      -5.33922000       7.78945000       1.66046000
C        0.68398662       0.08350243      15.07931315        2        6       2.92504000      -8.80042000      -1.41857000
C        2.11698641       0.03517271      15.07324118        3        6      -2.87583000      -6.54049000      -0.27547200
C        2.76890050       1.17765887      14.97822691        4        6       5.29001000       7.55146000       0.03357500
