4
Lattice="4.2600002 0.0 0.0 0.0 2.4768 0.0 0.0 0.0 30.0" Properties=species:S:1:pos:R:3:id:I:1:type:I:1:forces:R:3 comment="# Graphene data" energy=-28.905610269062 stress="0.007036591686545636 0.002192062133363798 0.0006473506640326336 0.002192062133363798 -0.015596067455985338 0.00038950931964729123 0.0006473506640326336 0.00038950931964729123 8.681692563326412e-05" free_energy=-28.905610269062 pbc="T T T"
C        0.00118073       1.17413291      14.95676682        1        6      -4.14434000       0.44682000      -0.56559500
C        0.62186436      -0.08088029      14.91079077        2        6       5.96583000       2.74199000       0.65927200
C        2.16221322       0.00492945      14.93998416        3        6      -5.76631000       1.96952000      -0.22155500
C        2.79262233       1.28555346      14.94982152        4        6       3.94482000      -5.15833000       0.12787700
