4
Lattice="4.2600002 0.0 0.0 0.0 2.4768 0.0 0.0 0.0 30.0" Properties=species:S:1:pos:R:3:id:I:1:type:I:1:forces:R:3 comment="# Graphene data" energy=-28.37264908466442 stress="-0.016847143825018496 0.014695746953766272 -0.00265165114832508 0.014695746953766272 -0.004313304354464866 -0.00024985361183536343 -0.00265165114832508 -0.00024985361183536343 0.00015462901218767279" free_energy=-28.37264908466442 pbc="T T T"
C        0.00090789       1.15220652      15.06896073        1        6       1.90410000       7.74588000      -0.02852170
C        0.63868477      -0.00193052      15.09128835        2        6       5.85945000      -7.19787000      -0.15695700
C        2.10090772      -0.06804874      15.04864616        3        6       2.35139000       3.65124000      -0.57981100
C        2.93942086       1.25661475      14.99419212        4        6     -10.11490000      -4.19925000       0.76529000
