ITEM: TIMESTEP
0
ITEM: NUMBER OF ATOMS
4
ITEM: BOX BOUNDS pp pp pp
0.0000000000000000e+00 4.2600002000000003e+00
0.0000000000000000e+00 2.4767999999999999e+00
0.0000000000000000e+00 3.0000000000000000e+01
ITEM: ATOMS id type c_1[1] c_1[2] c_1[3] c_1[4] c_1[5] c_1[6] c_1[7] c_1[8] c_1[9] c_1[10] c_1[11] c_1[12] c_1[13] c_1[14] c_1[15] c_1[16] c_1[17] c_1[18] c_1[19] c_1[20] 
1 1          13.96212795          12.60283421          6.083974843          1.115029754           0.49576863         0.3089774464      6.651135736e-05       2.38139069e-09          49.31899316          45.81615623          41.38434862          23.25768101          21.53804348          4.115510089          15.27221673           2.50303896          4.943668519          0.904194322          3.011824671         0.6922342752 
2 1          13.96098171          12.60180556          6.082573894          1.112689307         0.4934328725         0.3068843049      6.299221906e-05       2.09204062e-09          49.32234352          45.83351515          41.38703901          23.25453575          21.54283777          4.115117464           15.2763573          2.508168685          4.927211256         0.8953565225          2.969976653         0.6342748257 
3 1          13.94520516          12.58529937          6.127472362          1.258643503         0.6131931246         0.4040718419       0.000199499466       1.81335507e-08          49.31465441          45.88571029          41.11476039          23.56592946          21.29827074          4.325632399          15.18753033          2.586418474          5.150737705         0.8985795054          3.330729959         0.6584488076 
4 1          13.94344778           12.5836046           6.12708636          1.261984154         0.6163611674         0.4066407351      0.0002030186095      1.842290077e-08           49.2979843          45.86502892          41.10197217          23.56543005          21.28999572          4.324280418          15.17875433          2.587264854          5.107092308         0.9064593314           3.30625647         0.6754942429 
