ITEM: TIMESTEP
0
ITEM: NUMBER OF ENTRIES
576
ITEM: BOX BOUNDS pp pp pp
0 4.26
0 2.4768
0 30
ITEM: ENTRIES c_2[1] c_2[2] c_2[3] c_2[4] c_2[5] c_2[6] c_2[7] c_2[8] c_2[9] c_2[10] c_2[11] c_2[12] c_2[13] c_2[14] c_2[15] c_2[16] c_2[17] 
                   0                   94           0.73499858       -0.02164664382      -0.002387199739     -8.191387895e-05     -1.095661846e-19     -8.087941317e-87    -3.925630721e-171      -0.005736368831      -0.004231424551      -0.005439516946     -0.0003247912226      -0.003840670254     -1.275429966e-10      -0.002414955823      1.827918359e-54 
                   1                    2          -5.01179994           0.18673111         0.0205927746      0.0007066162158      9.451541512e-19      6.976925719e-86     3.386378914e-170        0.04972524922        0.03639763078        0.04726259448       0.002693117699         0.0336995224      6.649630921e-09         0.0171133222      1.108663605e-54 
                   1                    1          15.07149734      -0.003559067033     -0.0003924952044      -1.34679994e-05     -1.801449678e-20     -1.329791608e-87    -6.454387569e-172     -0.0009394210238     -0.0006893210853     -0.0008919549856     -5.191803775e-05     -0.0006376757812     -1.254097862e-10     -0.0004045363766     -1.731137555e-56 
                   0                   77          -3.52500162         0.5232486487        0.08386337679        0.01252876709      2.854557184e-12      1.712252747e-57       1.5236127e-114         0.4441024067          0.356944937         0.3986872407        0.04996578549         0.2195031178      2.308039713e-05        0.06302797728     -1.479607953e-24 
                   1                    2          -2.53499994         0.5499291419        0.08813957751        0.01316760999      3.000111298e-12       1.79956066e-57     1.601301842e-114         0.4680723511         0.3788068563         0.4217745048        0.05095134706          0.241151662      2.077215325e-05        0.01902508401      4.191106223e-24 
                   1                    1          15.07149734       -0.01745653502      -0.002797836128     -0.0004179826589     -9.523326542e-14     -5.712389339e-59    -5.083051532e-116       -0.01431367316       -0.01138479423       -0.01287845575      -0.001582734594      -0.007899882419     -7.680753694e-07      -0.001727406265     -9.914992375e-26 
                   0                   78          -2.17859868         0.4639899951        0.09918500988        0.03489618538      1.188250821e-08      4.672577444e-40      7.504566008e-80          0.784114971         0.6469357176         0.6572607267         0.1460400874         0.2849442169        0.01708135054         0.1153044067        0.01458719083 
                   1                    3          -2.50682571         0.7808137862         0.1669109763        0.05872415982      1.999617733e-08       7.86312835e-40      1.262886842e-79          1.321626364           1.10127856          1.109976114         0.2433876556         0.4955642899        0.02867697394          0.195615574        0.02322543086 
                   1                    1           14.9720039      -0.003943272612     -0.0008429352725     -0.0002965692655     -1.009848696e-10     -3.971043956e-42     -6.377842176e-82       0.008376085232        -0.1122375467       0.008139946221      -0.002254688544        0.01374295864     -0.0005382377009        0.08063445397      -0.007474198992 
                   0                   79          -1.46219802         0.2108518795        0.03317073179       0.004652580525      6.249071575e-13      3.822700771e-59     1.967375173e-117         0.1704001238          0.138658197         0.1538981069        0.01815402242        0.08946823246      1.894744944e-06      -0.005012394133      1.913483366e-24 
                   1                    4          -3.79099932         0.7098692651          0.111674997        0.01566371581      2.103857864e-12       1.28697823e-58     6.623508275e-117         0.5730720438         0.4625340879         0.5158503803        0.06291798194         0.2869343715      1.643207719e-05        0.05068508034      8.610516746e-25 
                   1                    1          15.06307808        -0.0156474966      -0.002461628107     -0.0003452719422     -4.637488956e-14     -2.836858626e-60    -1.460005783e-118       -0.01195005812      -0.009480955918       -0.01073051998      -0.001344316941      -0.006637128998     -3.685981397e-07      -0.001613833508     -4.893396405e-26 
                   0                   68           0.01640941                   -0                   -0                   -0                   -0                   -0                   -0      2.197103288e-05      -0.007117708149       0.002092718277       -0.00219178631        0.01326582623      9.794435072e-05        0.04184096997     -1.787096748e-06 
                   1                    1          -3.76661206         0.8137120297         0.1388539779        0.02547174737      3.272168883e-11      3.518983774e-53     3.615938187e-106         0.8126706249         0.5571870123         0.7237730545        0.09857497693         0.4140391639       0.002295328253          0.184127197      3.407094292e-06 
                   1                    1          14.95334937                   -0                   -0                   -0                   -0                   -0                   -0       0.005516792377       0.002525254137       0.005920507673     -0.0004378123791       0.008504283036      1.189041631e-05       0.008124342968      -2.93828326e-07 
                   0                   69           0.73499858        -0.1677183538       -0.04290836011       -0.02312749497     -3.266895352e-07     -1.580750292e-31     -1.831917909e-62        -0.4089019074        -0.3381739767        -0.3159602077        -0.1063061868       -0.08452155255       -0.01847526764        -0.3096168549      -0.001500933258 
                   1                    2          -2.53499994         0.8687101144         0.2222471517         0.1197906392      1.692113577e-06       8.18761773e-31      9.488559723e-62          2.150999622          1.857668884          1.697688178         0.5169161395         0.8457462161        0.04251799622         0.1097719826       0.003416358247 
                   1                    1          15.07149734       -0.02757567726      -0.007054845598      -0.003802543506     -5.371317439e-08     -2.599015486e-32     -3.011976679e-63       -0.06394796221       -0.04832525199       -0.05190666682       -0.01410795549       -0.02926006087      -0.003257670766       -0.06206943319     -0.0002467784063 
                   0                   70           2.08140152        -0.4438815127       -0.09706658658       -0.03620336951      -2.04596347e-08     -7.384359624e-39     -1.891787773e-77        -0.7967678652         -0.661205829        -0.6652846337        -0.1480992059        -0.3716972346       -0.00431842781        -0.1113991905     -1.803707423e-13 
                   1                    3          -2.50682571          0.794005741         0.1736306307        0.06475981183      3.659775627e-08      1.320898431e-38      3.383989443e-77          1.429256891          1.164506756          1.196260474         0.2624040886          0.673929315       0.007012176518         0.2538289876     -5.502866354e-14 
                   1                    1           14.9720039      -0.004009894737     -0.0008768709297     -0.0003270505681     -1.848263088e-10     -6.670812807e-41     -1.708985308e-79       0.006831951663       -0.07138693699       0.009236109409      -0.002697117383        0.03050029702     -0.0003639810507         0.1838280348     -2.243896098e-14 
                   0                   71           2.79780218        -0.2524485177       -0.03344292006       -0.00249866803     -1.850515132e-15      -2.46293863e-71    -1.118167064e-141         -0.124231408       -0.09203873348        -0.1167636224      -0.008185300067       -0.07916126563     -9.142692572e-07        -0.0311472783     -3.676371383e-32 
                   1                    4          -3.79099932         0.4518187861        0.05985434052       0.004471981718      3.311952505e-15      4.408035159e-71     2.001235301e-141         0.2225067664         0.1635716948         0.2091690454        0.01461831409         0.1416774997      1.731971918e-06        0.05744408374      8.454034557e-33 
                   1                    1          15.06307808      -0.009959345005      -0.001319356445     -9.857493791e-05     -7.300466171e-17     -9.716537757e-73    -4.411280232e-143       -0.00471896102       0.002927048581      -0.004403858268     -0.0003450403176      -0.002573711348     -3.570127355e-08       0.002678224755     -7.459301264e-34 
                   0                   73           4.99499878        -0.1639397792       -0.01823061151     -0.0006498809319     -1.188919796e-18     -3.002744388e-85    -6.619083545e-169       -0.04506856563       -0.03312912047       -0.04281913321      -0.002459966088       -0.03040869109     -7.657422586e-09       -0.01501388459     -9.708640581e-54 
                   1                    2          -2.53499994         0.1225611967        0.01362918491      0.0004858502624      8.888351181e-19      2.244848367e-85     4.948419502e-169        0.03363505312        0.02470591161        0.03194241907        0.00185131109        0.02265647148      4.545643933e-09        0.01175404234     -5.569933038e-54 
                   1                    1          15.07149734       -0.00389048999     -0.0004326345441      -1.54224635e-05     -2.821451016e-20     -7.125876981e-87    -1.570788884e-170      -0.001056908892     -0.0007733991906      -0.001001876903     -6.019089015e-05     -0.0007043918972     -1.680537436e-10      -0.000421104055      -9.14629894e-56 
                   0                   50          -5.72219822         0.1598663647         0.0175119048      0.0005825498344      6.033823259e-19      1.641572242e-86     2.339340761e-171        0.04209367652        0.03057827451        0.04006303687       0.002220687822        0.02884681944      4.341990446e-09        0.01549280378      3.292205143e-57 
                   1                    4          -1.31419932        0.06967817639       0.007632609862      0.0002539058806       2.62985777e-19      7.154835883e-87     1.019607836e-171        0.01836315116        0.01334443978        0.01748161449      0.0009639057394        0.01258957022      2.404585501e-09       0.006377030757      1.019064603e-55 
                   1                    1          15.06307808      -0.003056826865     -0.0003348475532     -1.113901593e-05     -1.153735689e-20     -3.138872984e-88    -4.473085817e-173     -0.0007931986459     -0.0005893890514     -0.0007532380555     -4.370375621e-05     -0.0005355953651     -8.222377559e-11     -0.0003008168801     -6.295070977e-59 
                   0                   42          -4.24359079         0.7091767466         0.1220831632        0.02302895094       3.74652031e-11      1.123147344e-52     4.151769392e-105         0.7249691336         0.5939924592         0.6452889217        0.08840284512         0.3693467394       0.002270126103          0.131427904      6.020222336e-06 
                   1                    1          -1.28981206         0.4123213341        0.07098017947        0.01338922606      2.178258467e-11      6.530073264e-53     2.413873696e-105         0.4220286865         0.2669080319         0.3777796478         0.0492098778         0.2296522168       0.001427708428         0.1492762298      1.343293451e-07 
                   1                    1          14.95334937                   -0                   -0                   -0                   -0                   -0                   -0       0.005828202314       -0.01978824232       0.006298313701     -0.0005096675712       0.009855513831      1.170963112e-05        0.01596544884     -4.886492674e-07 
                   0                   43          -3.52500162         0.8303746968         0.2153148389         0.1194400801      2.172807796e-06      3.191575122e-30      1.481209538e-60          2.101521094          1.805231778          1.643570527         0.5243505101         0.7942456741        0.05558957259         0.2975061417       0.004870320181 
                   1                    2          -0.05819994         0.2919662529        0.07570638526        0.04199606848      7.639762543e-07      1.122182832e-30       5.20804885e-61         0.7433463276         0.6654785515         0.5859292247         0.1796828816          0.349447742       0.008291630754        -0.2400836745     -4.777439725e-05 
                   1                    1          15.07149734       -0.02770282352      -0.007183298101       -0.00398474023     -7.248885491e-08     -1.064768022e-31     -4.941586801e-62       -0.06576680583       -0.04936800224        -0.0531500913       -0.01489049084       -0.02987326214      -0.003821596502       -0.06188784077     -0.0004510004711 
                   0                   44          -2.17859868         0.4968704511         0.2137053139         0.2632834413        0.00580823574      3.142601059e-13      1.306741718e-26          2.838510978          2.841716993          1.718735253          1.402874005          0.301515809         0.4373278996        -0.2353275708         0.1645019695 
                   1                    3          -0.03002571         0.2754878781         0.1184880754         0.1459764742       0.003220353588      1.742402865e-13      7.245178344e-27          1.664807473          1.555857847         0.9682020192         0.7602579513         0.6136065486        0.08542145277         0.5113637198        0.00924794447 
                   1                    1           14.9720039      -0.004222710967      -0.001816199315      -0.002237544762     -4.936196288e-05     -2.670775839e-15     -1.110549555e-28        0.06834798788        0.04164204312        0.06309414327       -0.02679890017         0.1221722049       -0.03496517938        0.08001242337       -0.02679745493 
                   0                   45          -1.46219802          0.352440515         0.1272118735          0.125991282      0.0003926252452        3.8276228e-18      3.332316702e-36          1.572483315          1.524327672          1.057633932         0.6265898136         0.2444920036         0.1898417304       0.006908829313         0.1001435833 
                   1                    4          -1.31419932         0.5961823999         0.2151894485         0.2131247165      0.0006641582081      6.474741833e-18      5.636890437e-36          2.661736081          2.543101177          1.788341159          1.059397152         0.4730401997         0.3233213202        0.05699012001         0.1452474296 
                   1                    1          15.06307808        -0.0261549092      -0.009440500905       -0.00934991977     -2.913705206e-05     -2.840511306e-19     -2.472940455e-37       -0.04982842851         0.0785152274       -0.07245450468       -0.03918443445        -0.0700776322        -0.0486740353         -0.125544755        -0.2797121644 
                   0                   34           0.01640941                   -0                   -0                   -0                   -0                   -0                   -0        0.02649231709        -0.1170321981        0.03168573374       -0.02668732701         0.4107173056        -0.1527120833         0.5243724646      -0.003949421374 
                   1                    1          -1.28981206         0.5572350607         0.2433932895         0.3048959963       0.007813167168      8.180428237e-13      7.761829956e-26          3.229711047          3.265377595          1.982009928          1.605690757         0.5228531636           0.42233574        0.02864257584         0.1510577574 
                   1                    1          14.95334937                   -0                   -0                   -0                   -0                   -0                   -0        0.08025684397        0.02682504399        0.09523662249        -0.0217911525          0.157189288       -0.02939391287        0.09610225776     -0.0007293977049 
                   0                   35           0.73499858        -0.1114985437       -0.08813680104        -0.1658750655        -0.1681162395     -0.0001947192718     -1.173196077e-08         -1.369202205         -1.522189494        -0.4000025168         -1.153763219          0.107014724        -0.3284345392        0.04627182298        0.01669432335 
                   1                    2          -0.05819994          0.193207247         0.1527254807         0.2874321375         0.2913156956      0.0003374140432      2.032941208e-08          2.382385899          2.666088254         0.8101963715           1.90719609      -0.009467914774         0.5267107497       -0.09825345997         0.1546729134 
                   1                    1          15.07149734       -0.01833220864       -0.01449115094       -0.02727261011       -0.02764109627     -3.201507571e-05     -1.928928805e-09       -0.06334035433         0.0468202677       -0.09607433831        -0.1386436095        -0.4727663549        -0.2611052768         -0.624865917        -0.6022812251 
                   0                   36           2.08140152        -0.4572166093        -0.2074029008        -0.2702073725      -0.009855662302     -4.890718811e-12     -3.243536845e-24         -2.910905646         -2.856881559         -1.695670638         -1.415010259        -0.6602131691        -0.2942964201        -0.2947278464        -0.1202962047 
                   1                    3          -0.03002571         0.2694629446         0.1222339592         0.1592480955        0.00580848493      2.882370118e-12      1.911595011e-24          1.599669573          1.646584664          1.002145045         0.8399078591        -0.0862576553         0.3537558096        -0.4535910777        0.09935059148 
                   1                    1           14.9720039      -0.004130360069      -0.001873616667      -0.002440973751     -8.903314797e-05     -4.418131205e-14     -2.930115573e-26         0.1665742301         0.2092354338        0.07126184908       -0.03223646893         0.1385728566       -0.03565053481        0.05412739892       -0.02942936291 
                   0                   37           2.79780218        -0.6532236411        -0.1702263804       -0.09543048184     -1.905052966e-06      -4.20751445e-30     -3.250607607e-60         -1.681588779         -1.460453831         -1.324185569        -0.4073966759        -0.6995493996       -0.02696482502        0.05459441311      -0.001711026874 
                   1                    4          -1.31419932         0.5874160121         0.1530772851        0.08581654053      1.713132449e-06      3.783637339e-30      2.923132044e-60          1.512005686          1.293025631          1.187433833         0.3701480468         0.5395872068        0.03679960269         0.3139939829       0.002582722192 
                   1                    1          15.06307808       -0.02577032207      -0.006715599945      -0.003764827384     -7.515623348e-08     -1.659906281e-31     -1.282397018e-61       -0.06007067958       -0.04945127396        -0.0477079596       -0.01443101188       -0.02064018747      -0.002972305784       -0.03430467849     -0.0002213786002 
                   0                   38           4.27640961        -0.7091767466        -0.1220831632       -0.02302895094      -3.74652031e-11     -1.123147344e-52    -4.151769392e-105        -0.7284883873        -0.5135624271        -0.6503457213       -0.08668286909        -0.3802996104      -0.001899420435        -0.1841822532     -1.356778211e-06 
                   1                    1          -1.28981206         0.4123213341        0.07098017947        0.01338922606      2.178258467e-11      6.530073264e-53     2.413873696e-105         0.4237011862         0.3953052905         0.3759345451        0.05285383844         0.2067903691      0.0009738623748        0.05428574723      2.120000449e-06 
                   1                    1          14.95334937                   -0                   -0                   -0                   -0                   -0                   -0       0.005855792381       -0.09849355681       0.006374584477     -0.0005638843521       0.009909563516      1.101898209e-05        0.01461625429     -1.652217336e-07 
                   0                   39           4.99499878        -0.7381866166        -0.1185380192       -0.01782266574     -4.284668453e-12     -3.241433136e-57    -3.853719085e-114        -0.6338741337        -0.5121595741        -0.5698704237       -0.07041556142        -0.3199970668     -2.455293547e-05       -0.04790419407      -7.65090795e-24 
                   1                    2          -0.05819994         0.1846268009        0.02964737477       0.004457601484       1.07163231e-12      8.107102143e-58     9.638481789e-115         0.1578008947          0.126153462         0.1410609649        0.01840419033        0.07396243926      9.476211457e-06        0.03700715044     -7.074218543e-24 
                   1                    1          15.07149734       -0.01751806461      -0.002813051108     -0.0004229534955     -1.016803842e-13     -7.692314358e-59     -9.14534325e-116       -0.01440790871       -0.01145738153       -0.01291020514      -0.001651702884      -0.007920605835     -6.747778279e-07      -0.001896478949     -1.815653342e-25 
                   0                   40           6.34140172       -0.04355126621       -0.00448244857     -0.0001107836991     -8.959485245e-21     -1.601080184e-92    -2.164471921e-182      -0.008796395014      -0.006583638422      -0.008380012746     -0.0004551374609      -0.005979974166     -1.265846015e-09      -0.001961741727     -7.429757038e-46 
                   1                    3          -0.03002571       0.008379849785      0.0008624834351      2.131627477e-05      1.723925549e-21      3.080693767e-93     4.164735297e-183       0.001692838539       0.001266323465       0.001612319423      8.801091805e-05       0.001149219504      1.874870177e-10      0.0004189997346      1.857668371e-46 
                   1                    1           14.9720039     -0.0001284473344     -1.322024869e-05     -3.267383955e-07     -2.642453589e-23     -4.722124053e-95    -6.383755806e-185     -2.309509342e-05     -1.982849528e-05      -2.17763096e-05     -1.441005208e-06     -1.381480274e-05     -5.778060391e-12      3.436295645e-06     -2.191292143e-48 
                   0                   16          -5.72219822         0.4982089346        0.06519342535       0.004640281238      2.314744287e-15      5.807625991e-72     3.295915923e-143         0.2378126947         0.1755112888         0.2236269758        0.01554343447         0.1508267411      1.518843423e-06        0.06052254365      1.297315517e-33 
                   1                    4           1.16260068       0.002117229754      0.0002770513541      1.971972163e-05      9.836928117e-18      2.468056611e-74     1.400659598e-145       0.001003944615      6.933501281e-06      0.0009370162469      7.293023294e-05      0.0003942184264      1.689961161e-08      -0.000488804255     -5.632284108e-34 
                   1                    1          15.06307808      -0.009526321928      -0.001246572501     -8.872745918e-05     -4.426054557e-17     -1.110484196e-73    -6.302166411e-145      -0.004373101466      0.0003088210867      -0.004084649551     -0.0003158768704      -0.002444395493     -2.935282258e-08        0.00155814752     -2.480614938e-35 
                   0                    8          -4.24359079         0.9092325462         0.1968793749        0.07160755061      3.252824998e-08      4.514180833e-39      3.503902196e-78          1.594828008           1.30400469          1.336712689         0.2910020175         0.7527654458       0.009600197285         0.2686563894      1.601965887e-06 
                   1                    1           1.18698794                   -0                   -0                   -0                   -0                   -0                   -0     -3.250033178e-05        0.01593907719     -0.0002550057422      0.0002249425901      -0.006124789017     -7.019743652e-05       -0.03616218025      1.538039137e-08 
                   1                    1          14.95334937                   -0                   -0                   -0                   -0                   -0                   -0        0.01564612371       -0.06019320394        0.01719061189      -0.001717250753        0.03622821109     -0.0003256858934         0.1731702684      2.554190184e-10 
                   0                    9          -3.52500162         0.8308211687         0.2157846068         0.1201182875      2.253160421e-06      3.786295285e-30      2.078950156e-60          2.109385363          1.820658499          1.647779306         0.5285683521         0.7791931769        0.05542314214         0.2670163977       0.005978523433 
                   1                    2           2.41860006         -0.288938339       -0.07504436361       -0.04177406616     -7.835915289e-07     -1.316776596e-30     -7.230056571e-61        -0.7381586231        -0.6608963826        -0.5816800993        -0.1786644213        -0.3411559891      -0.008275604323         0.2647098047      9.657378385e-05 
                   1                    1          15.07149734       -0.02771771864      -0.007198970419      -0.004007366471     -7.516956592e-08     -1.263177581e-31     -6.935759181e-62       -0.06600236535       -0.05059790523       -0.05328916223       -0.01501004598       -0.02996727456      -0.003761893102       -0.05829807439     -0.0005804260151 
                   0                   10          -2.17859868          0.498731348         0.2124305336         0.2589273951       0.005188308302      1.837307085e-13      4.498115913e-27          2.789535579          2.780904928           1.71184969          1.375595554         0.3006221613         0.4309868747        -0.2255020031         0.1449238239 
                   1                    3           2.44677429        -0.2862380997        -0.1219207746        -0.1486068318      -0.002977738446     -1.054490139e-13     -2.581614643e-27         -1.716155542         -1.649514991          -0.99901716        -0.7706979424        -0.5675095956       -0.09522632536        -0.4685092732       -0.05703464044 
                   1                    1           14.9720039      -0.004238526016      -0.001805365447        -0.0022005244     -4.409343789e-05     -1.561456666e-15     -3.822775807e-29         0.1562159126         0.2081685636        0.06192397925       -0.02612936784         0.1133901532       -0.03387516239        0.06518150253        -0.0276265774 
                   0                   11          -1.46219802         0.2347261615         0.1802190171          0.335196526         0.3052313911      0.0002204103657      7.357867048e-09          2.790828169          3.118143677         0.9124978302          2.273349414       -0.03802652763         0.6462961249       -0.09279742147         0.1448430926 
                   1                    4           1.16260068       0.003871431872       0.002972423875       0.005528529524       0.005034302644      3.635315761e-06      1.213562255e-10        0.02210747395        0.03931357903        0.01330020102        0.03906573226       -0.05063554981       -0.00589694093       -0.01770040524         0.1336940228 
                   1                    1          15.06307808        -0.0174192273       -0.01337420593       -0.02487521816       -0.02265148011     -1.635683996e-05     -5.460335469e-10       -0.02850597083        0.05090038599        -0.0715841786        -0.1353404801        -0.3889194928        -0.2548376532        -0.5493881451        -0.6096420969 
                   0                    1           0.73499858          -0.11074377       -0.08829446933        -0.1667309712        -0.1742144256     -0.0002308387303      -1.64545758e-08         -1.364951986         -1.521510382        -0.3931307146         -1.165922711         0.1175294697        -0.3027314734       0.009450854901       -0.03916216561 
                   1                    2           2.41860006        -0.1898071598        -0.1513306116         -0.285765349        -0.2985914721     -0.0003956416126     -2.820200447e-08         -2.367188724         -2.651829513        -0.7928584414         -1.904405455        0.01165468958        -0.5401870112         0.1178107531        -0.1212529381 
                   1                    1          15.07149734       -0.01820811135       -0.01451707422        -0.0274133352       -0.02864373914     -3.795371336e-05     -2.705404993e-09       -0.06364660998        0.03204024128       -0.09568022454        -0.1397965122        -0.4832568249        -0.2671231442         -0.602629956        -0.5899568424 
                   0                    2           2.08140152        -0.4593166037        -0.2061759684        -0.2657542864      -0.008804501411     -2.859592498e-12     -1.116603254e-24         -2.879327391          -2.78736476         -1.691009137         -1.385850791        -0.6878281846        -0.2891732188        -0.3461754903       -0.08704620926 
                   1                    3           2.44677429        -0.2802145271        -0.1257814349        -0.1621282817      -0.005371347737     -1.744546906e-12     -6.812043161e-25         -1.666142344         -1.736225342         -1.034131388        -0.8521730654        0.08387232602        -0.3566876513         0.5015113111        -0.1411082605 