ITEM: TIMESTEP
0
ITEM: NUMBER OF ATOMS
4
ITEM: BOX BOUNDS pp pp pp
0.0000000000000000e+00 4.2600002000000003e+00
0.0000000000000000e+00 2.4767999999999999e+00
0.0000000000000000e+00 3.0000000000000000e+01
ITEM: ATOMS id type c_1[1] c_1[2] c_1[3] c_1[4] c_1[5] c_1[6] c_1[7] c_1[8] c_1[9] c_1[10] c_1[11] c_1[12] c_1[13] c_1[14] 
1 1          13.95781377          12.59822694          6.112747263         0.3698984927      0.0001760147137      1.633009417e-08          48.61532466          43.33453659          36.12512081          14.67696488          15.36655073          2.558073811          3.314435718         0.7101383862 
2 1          13.95481013          12.59518723          6.124539118         0.3931633599      0.0001893662993      1.669079686e-08          48.59516936          43.41080109          36.02699415          14.79196413          15.20254015          2.634185628          3.222488575         0.7617494257 
3 1          13.95367831          12.59432399          6.102994895         0.3508683805      9.734941289e-05      4.010386745e-09          48.60452881          43.38132858          36.15533819          14.60735498          15.19245415          2.521652365          3.026098874         0.7098139951 
4 1          13.96675328          12.60770713          6.097283055         0.3266029435      8.399782618e-05      3.649684053e-09          48.61052129          43.32511668          36.28588203          14.52199488          15.36724885          2.492355044          3.134151004         0.8388926924 
