ITEM: TIMESTEP
0
ITEM: NUMBER OF ATOMS
4
ITEM: BOX BOUNDS pp pp pp
0.0000000000000000e+00 4.2600002000000003e+00
0.0000000000000000e+00 2.4767999999999999e+00
0.0000000000000000e+00 3.0000000000000000e+01
ITEM: ATOMS id type c_1[1] c_1[2] c_1[3] c_1[4] c_1[5] c_1[6] c_1[7] c_1[8] c_1[9] c_1[10] c_1[11] c_1[12] c_1[13] c_1[14] c_1[15] c_1[16] c_1[17] c_1[18] c_1[19] c_1[20] c_1[21] c_1[22] 
1 1          13.95942866          12.60014135          8.787848913          6.104130285          1.172654158         0.3470184495      9.670913461e-05       4.13018376e-09          48.62023848          43.33900477          46.03750975          35.27980457          36.19880482          14.60024019          21.48202668          4.196572406           15.2674942          2.527802524           4.97190991         0.9303477053          3.131338302         0.7725926717 
2 1          13.96367006          12.60450802          8.790701633          6.103643589          1.162604558         0.3400771695      8.632289552e-05      3.253210073e-09          48.59233794          43.29657524          46.01185916          35.22985487          36.23330029          14.58416217          21.52614237          4.188886562          15.30848632          2.523560763          5.001046066         0.9659568851          3.170973641         0.8574321029 
3 1          13.95796566          12.59853726          8.790364317          6.114794016          1.204354673         0.3685200194      0.0001258603599      6.962072158e-09          48.57804965          43.30066765          45.97412033          35.25653958          36.12283603          14.69495341           21.4675048          4.247308794          15.29654314          2.542653188          5.059463562         0.9677016647          3.273779962         0.8566740512 
4 1          13.95913828           12.5996856           8.79285098          6.119899633          1.214636401         0.3753671575      0.0001362465988      7.839045845e-09          48.59035923          43.38163238          45.97342156          35.33799207           36.0989631          14.73676604          21.42517158          4.282574333          15.25036831          2.577650237          5.032298541         0.9865587001          3.247801381         0.8688472718 
