ITEM: TIMESTEP
0
ITEM: NUMBER OF ENTRIES
600
ITEM: BOX BOUNDS pp pp pp
0 4.26
0 2.4768
0 30
ITEM: ENTRIES c_2[1] c_2[2] c_2[3] c_2[4] c_2[5] c_2[6] c_2[7] c_2[8] c_2[9] c_2[10] c_2[11] c_2[12] c_2[13] c_2[14] c_2[15] c_2[16] c_2[17] 
                   0                   99           0.62186436       -0.01881872508      -0.002076541367     -7.144435241e-05     -9.768304358e-20     -7.857862058e-87    -4.238858966e-171      -0.005039331589       -0.00367225514      -0.004788834405     -0.0002741417288      -0.003446645513     -4.128039032e-11      -0.002309678492      1.568665928e-55 
                   1                    2          -5.03448029         0.1882411253        0.02077135841      0.0007146480558      9.771100839e-19      7.860111615e-86     4.240072472e-170        0.05039592042        0.03652257697        0.04789898129       0.002731452553         0.0344327806      6.373888766e-09        0.01866345037      8.846901801e-56 
                   1                    1          14.91079077       0.001393964015      0.0001538161554      5.292114952e-06      7.235699926e-21      5.820573339e-88     3.139860347e-172      0.0003766341756      0.0002740840594      0.0003581047055      2.026878956e-05      0.0002579744075      5.061530089e-11       0.000171818078      1.260474358e-57 
                   0                   77          -3.63813584         0.5125379851        0.08012437271        0.01099836386      1.233250727e-12      3.461308157e-59     6.735261563e-118         0.4086324812         0.3266077848         0.3690036601        0.04356042231         0.2093666425      1.358917532e-05        0.05759163592      5.317971398e-24 
                   1                    2          -2.55768029         0.5255646167        0.08216080849        0.01127789756      1.264594946e-12      3.549280537e-59     6.906444527e-118         0.4187928673         0.3375788651         0.3781852977        0.04465186708           0.21828271      8.805810725e-06        0.02342166386      3.661748438e-23 
                   1                    1          14.91079077       0.006474971764       0.001012223613      0.0001389440345      1.557984748e-14      4.372724214e-61      8.50876027e-120       0.005358033053       0.004015134245       0.004937135147      0.0004639392945       0.003482922979      1.297314069e-07       0.002002606475      4.730211183e-25 
                   0                   78          -2.09778698       0.006714929964      0.0006835734055      1.600044285e-05      7.802304371e-22      2.082054558e-94     3.255844498e-185       0.001323361904       0.000984575395       0.001265020329      6.373523078e-05      0.0009126738884      1.808858093e-10      0.0002674730273      9.247969012e-49 
                   1                    3          -4.94867055        0.01958781749       0.001994020962      4.667416577e-05      2.275974803e-21      6.073466871e-94      9.49747624e-185       0.003860661855       0.002874935895       0.003690176447       0.000186246415       0.002661283592      5.237859689e-10      0.0008028400299      1.516659056e-48 
                   1                    1          14.93998416      5.369038598e-05      5.465629602e-06      1.279343131e-07      6.238467645e-24      1.664742796e-96      2.60326688e-187      1.047503328e-05      7.743805477e-06      1.000941333e-05      5.087167292e-07      7.223248203e-06      1.441331856e-12      2.212988153e-06      6.105458447e-51 
                   0                   79          -1.46737787         0.2275389139        0.03745475521       0.006114602464      2.936029735e-12      4.432179113e-56     2.212749299e-111         0.2082399625         0.1697448336         0.1877316395        0.02268411563         0.1113969619      0.0003371841431       -0.01004074517      0.0001292580754 
                   1                    4          -3.66804654         0.7502487495          0.123497044        0.02016126724      9.680773276e-12      1.461392594e-55     7.295949366e-111         0.6865329366         0.5553112409         0.6157785335          0.078174761         0.3437980771       0.001022744451        0.05932821219      0.0004869358723 
                   1                    1          14.94982152       0.001076106884      0.0001771359423      2.891798018e-05      1.388545702e-14      2.096124295e-58     1.046482429e-113     -4.760185804e-05      0.0001146966314     -0.0002221169959      0.0001921045654     -0.0006068151221     -4.364372378e-06     -0.0002496586947      4.213572536e-06 
                   0                   68           0.00118073                   -0                   -0                   -0                   -0                   -0                   -0      -0.001458837809      -0.009320811468     -0.0001724765225      -0.001340668956       0.009663181128      0.0001058809054        0.04809688099     -9.544774588e-06 
                   1                    1          -3.77946709         0.8137120297         0.1388539779        0.02547174737      3.272168883e-11      3.518983774e-53     3.615938187e-106         0.8155603322          0.555442235          0.728710364        0.09654198948         0.4310242044        0.00301823078         0.1954960033      1.897271564e-05 
                   1                    1          14.95676682                   -0                   -0                   -0                   -0                   -0                   -0      -0.001567029873     -0.0003514607631      -0.001746694356      0.0001944528569      -0.002995977293     -5.381377361e-06      -0.004041568385      7.070124174e-07 
                   0                   69           0.62186436        -0.1450387984       -0.03723103942       -0.02021304445     -3.042633764e-07      -1.94612389e-31     -3.196249379e-62        -0.3621437937        -0.2829389055        -0.2854304313        -0.0888904372       -0.09693823377       -0.02150103037        -0.3277476315      -0.001722349141 
                   1                    2          -2.55768029          0.872034763         0.2238487978         0.1215293951       1.82936045e-06      1.170092213e-30      1.921720671e-61          2.175232023          1.874428609          1.710891891         0.5320887087         0.8671846349        0.05658230538         0.1747199186         0.0045341772 
                   1                    1          14.91079077        0.01074349431       0.002757823869       0.001497245774      2.253777534e-08      1.441557098e-32      2.367565602e-63        0.02776834302        0.02036745457        0.02305607737       0.005581689143        0.01285544973       0.001731529411        0.02641129354      0.0001275800779 
                   0                   70           2.16221322      -0.001766540949     -0.0001785587098     -4.033688621e-06     -1.394855196e-22     -9.470035859e-96    -3.183292826e-187     -0.0003365752925      -0.000251595664     -0.0003219775629      -1.59459918e-05     -0.0002343005251     -1.454093783e-11     -7.652469285e-05     -2.719823759e-52 
                   1                    3          -4.94867055       0.005005099684      0.0005059062698      1.142855684e-05      3.952011024e-22      2.683123396e-95     9.019150068e-187      0.0009535764307      0.0007128177162       0.000912215929      4.518062421e-05      0.0006636920717      4.194542248e-11      0.0002168802696      6.474053135e-52 
                   1                    1          14.93998416      1.371902378e-05      1.386693689e-06       3.13257783e-08      1.083249818e-24      7.354465643e-98     2.472157241e-189      2.606043434e-06      1.960789349e-06      2.491820598e-06      1.247680728e-07      1.802343506e-06      1.144047875e-13      5.220675675e-07      1.885921094e-54 
                   0                   71           2.79262233        -0.2874661134       -0.03958046069      -0.003432952359     -8.609277829e-15     -2.023731387e-68    -5.816006441e-136        -0.1581972469        -0.1270409076         -0.147625557       -0.01160418608       -0.09734062051     -1.033865855e-05       -0.04303980976     -1.125434096e-15 
                   1                    4          -3.66804654         0.4986536372        0.06865832098       0.005954977301      1.493410007e-14      3.510469478e-68     1.008874657e-135         0.2742388144          0.198479866         0.2557963116        0.02024607784         0.1673927638      2.448812929e-05        0.06421084161      1.561899826e-15 
                   1                    1          14.94982152      0.0007152355964      9.847892703e-05      8.541423191e-06      2.142047941e-17      5.035183829e-71     1.447062677e-138      7.083230724e-05       0.004722011352     -2.708468757e-06      8.009455547e-05     -0.0005782466136     -9.942212194e-08      -0.004008211509        1.0345801e-17 
                   0                   73           4.88186456        -0.2019026151       -0.02302285333      -0.000919019447     -4.229925328e-18       -4.1899534e-83    -8.559339716e-165       -0.06064649567        -0.0442962874       -0.05744935474      -0.003497179362       -0.04019919584     -1.324639178e-08       -0.01880968421     -6.468283289e-41 
                   1                    2          -2.55768029         0.1543764912        0.01760347339      0.0007026902423      3.234237604e-18      3.203674721e-83     6.544545405e-165        0.04640978537        0.03432973996        0.04394557181       0.002695948751        0.03079570748      7.265783716e-09        0.01597534842      1.730529398e-41 
                   1                    1          14.91079077       0.001901922979      0.0002168753176      8.657164757e-06       3.98459038e-20      3.946936817e-85     8.062899472e-167      0.0005806183386      0.0003458586847       0.000550901724      3.251345983e-05       0.000396859205      1.195618006e-10      0.0003352226688      4.177879789e-43 
                   0                   50          -5.72737807         0.2015504883        0.02256370747      0.0008292186232      1.946250204e-18      1.315619817e-84      9.75701401e-168         0.0562669125        0.04125607945        0.05336442034       0.003175044981        0.03755273025      6.489906618e-08        0.01950699814      1.447114637e-32 
                   1                    4          -1.19124654        0.08322222042       0.009316781381      0.0003423926959      8.036262519e-19      5.432326329e-85     4.028769057e-168        0.02324032502        0.01693102991         0.0220532074       0.001298252036        0.01550653784      1.838829007e-08       0.007185934826      8.971091633e-33 
                   1                    1          14.94982152       0.000244359647      2.735622047e-05       1.00534398e-06      2.359632154e-21      1.595056389e-87      1.18293958e-170      4.412756624e-05      0.0001092264141      3.891593086e-05       5.69131676e-06      5.077687093e-06     -2.147947439e-10     -0.0001542467722      1.101736244e-34 
                   0                   42          -4.25881947         0.7091767466         0.1220831632        0.02302895094       3.74652031e-11      1.123147344e-52     4.151769392e-105         0.7264907403         0.5983705098         0.6441333902        0.09139967706         0.3604708046       0.002690365291         0.1331463891      2.078185241e-06 
                   1                    1          -1.30266709         0.4123213341        0.07098017947        0.01338922606      2.178258467e-11      6.530073264e-53     2.413873696e-105         0.4205498833         0.2637982992         0.3740287591        0.05175424641         0.2177221531       0.001612905549         0.1440966437     -3.050077887e-07 
                   1                    1          14.95676682                   -0                   -0                   -0                   -0                   -0                   -0      -0.001603371841        0.02435972342      -0.001662298456      6.345497817e-05      -0.002553891239     -1.224920476e-06      -0.009645812428      8.081477047e-08 
                   0                   43          -3.63813584         0.8427698897         0.2111587753         0.1087530727      1.030088945e-06      8.627380226e-32       1.11730841e-63          2.005503024          1.717523797          1.587960496         0.4746692712         0.7435914161        0.03771163009         0.2843046088       0.001621160193 
                   1                    2          -0.08088029          0.290628011        0.07281780665        0.03750334415      3.552247236e-07      2.975139936e-32      3.853022336e-64         0.6919101271         0.6267669152          0.548559851         0.1625996094         0.3074333028       0.003093531432        -0.2944856902      0.0003386448397 
                   1                    1          14.91079077        0.01064684257        0.00266760152       0.001373894415      1.301327321e-08      1.089910309e-33      1.411513023e-65        0.02649414901        0.01919277777         0.0228296315       0.004323427194         0.0187478234       0.001065391401        0.01771627428      3.775428008e-05 
                   0                   44          -2.09778698         0.4539334451         0.1001333007         0.0381794032      2.613204475e-08      2.181558158e-38      1.593324619e-76         0.8227211502         0.8036492897         0.6916135518         0.1571362926         0.3139816831        0.02344880034        0.05511448983         0.0271927991 
                   1                    3          -2.47187055          0.788503274         0.1739361492        0.06631937952      4.539256374e-08      3.789466868e-38      2.767678152e-76          1.434996768          1.129969414          1.196246327         0.2762947533         0.5339810973        0.03984178168         0.2554525513        0.03156344608 
                   1                    1          14.93998416        0.00362950351      0.0008006331552      0.0003052700334      2.089432915e-10      1.744302624e-40      1.273970305e-78       0.001145742017      -0.002704168073       0.002942932255       0.001184026245       0.001662046703      0.0005311055758       0.005013534904       0.005775457933 
                   0                   45          -1.46737787         0.3459372389         0.1316067663         0.1399790362      0.0008258720389      1.338644638e-16      3.908849317e-33          1.602861049           1.45036974          1.105522087         0.6994754757         0.2898011987          0.255459747         0.1352423541         0.3810220659 
                   1                    4          -1.19124654         0.5571945416         0.2119765194         0.2254615754        0.00133021641      2.156129498e-16      6.295909369e-33          2.736426941           2.71517756          1.771160046          1.136541425         0.4461404625         0.3543743707       -0.01742470022        0.05746731221 
                   1                    1          14.94982152       0.001636051776      0.0006224119855      0.0006620072225      3.905822397e-06      6.330893845e-19      1.848624302e-35       -0.04124606213       0.006575090832       -0.01105474479       0.005427309943      -0.009414094111        0.01449745943      -0.007714136565         0.1249499118 
                   0                   34           0.00118073                   -0                   -0                   -0                   -0                   -0                   -0        0.01600860713        -0.1477743556      -0.002324157356      -0.005990332916         0.3651736418        -0.1620945013         0.6215736151       -0.01452938863 
                   1                    1          -1.30266709         0.5572350607         0.2433932895         0.3048959963       0.007813167168      8.180428237e-13      7.761829956e-26          3.230809159          3.262970059          1.983449242          1.613227263         0.5854025737         0.4589037966        0.03931657003         0.1538288917 
                   1                    1          14.95676682                   -0                   -0                   -0                   -0                   -0                   -0       -0.02390956992      -0.001413129958       -0.02804099092       0.007176419504       -0.06037243482        0.01378538055        -0.0499812598       0.001117244839 
                   0                   35           0.62186436       -0.09397348596       -0.07660880536        -0.1458946743        -0.1646216731     -0.0003062102858      -3.33499088e-08         -1.311549442         -1.423740242        -0.3861001656        -0.9933549303        -0.1019034052        -0.4203117765         0.1248480074         0.1871318205 
                   1                    2          -0.08088029         0.1900130109         0.1549018813         0.2949968924         0.3328626095      0.0006191527086      6.743302666e-08          2.339524178          2.679667232           0.72172392          2.051918854        -0.1161567063         0.5692344917       -0.01511652182          0.318253866 
                   1                    1          14.91079077       0.006960920959       0.005674662735        0.01080689181        0.01219406137      2.268198923e-05      2.470335934e-09       -0.01812957802      -0.006521481099        0.05298040256        0.05186463921         0.1977694945         0.1157077595         0.2463459645         0.2176011393 
                   0                   36           2.16221322        -0.4637762909        -0.1011870327         -0.037522799     -2.016726819e-08     -5.843317263e-39     -1.137707737e-77        -0.8287478874         -0.618150664         -0.692284259        -0.1541284316        -0.3948770683      -0.006157916716        -0.2676999003     -3.928783988e-08 
                   1                    3          -2.47187055         0.7824639236         0.1707185214        0.06330689409      3.402536979e-08      9.858600025e-39      1.919492818e-77          1.396018817          1.183938523           1.16354842         0.2623232952         0.6347521256        0.01011272789         0.1526163422      1.037411768e-07 
                   1                    1          14.93998416       0.003601704205      0.0007858223207      0.0002914034753       1.56619767e-10      4.537942273e-41      8.835481285e-80       0.003711360537        0.02089466366       0.002279377534       0.001610895045      -0.006437730502      0.0001619104831       -0.06269566138      3.053495003e-10 
                   0                   37           2.79262233        -0.6614544075        -0.1777533927        -0.1062154494     -3.720267272e-06     -9.701884264e-29     -1.638556768e-57         -1.799134924         -1.595609639         -1.386467454        -0.4734405662         -0.676345281       -0.04601201229         0.1496245189      -0.005409851521 
                   1                    4          -1.19124654         0.5604955742          0.150622611        0.09000361721      3.152436989e-06      8.221070311e-29      1.388461255e-57          1.520331991          1.311514605          1.167588158         0.4061131719         0.4896073243        0.05651680396         0.3961941318       0.008069546365 
                   1                    1          14.94982152        0.00164574437      0.0004422627499      0.0002642713932       9.25628259e-09      2.413895988e-31      4.076842704e-60      -0.002802737106       0.002328345004      -0.005103756115       0.002658812456       -0.01644243222      0.0003715058912       -0.01164626721      0.0001750479748 
                   0                   38           4.26118093        -0.7091767466        -0.1220831632       -0.02302895094      -3.74652031e-11     -1.123147344e-52    -4.151769392e-105        -0.7226210697        -0.5815307489        -0.6435444686       -0.08775545812        -0.3701165677      -0.001995895194        -0.1808470825      -1.46857139e-05 
                   1                    1          -1.30266709         0.4123213341        0.07098017947        0.01338922606      2.178258467e-11      6.530073264e-53     2.413873696e-105         0.4220817411         0.2946661351         0.3742265377        0.05299143943         0.2076656877       0.001004085826        0.08058853655      1.698022102e-05 
                   1                    1          14.95676682                   -0                   -0                   -0                   -0                   -0                   -0      -0.001658606013       0.009403408494      -0.001819232725      0.0001766988074      -0.002714392938      1.088198813e-07      -0.007227330716      7.897368524e-08 
                   0                   39           4.88186456        -0.7650651071        -0.1268040174       -0.02117264441     -1.229009525e-11     -4.219531279e-55    -5.877013708e-110         -0.710175063        -0.5750517121        -0.6348093932       -0.08303084815        -0.3550717376     -0.0001047503651       -0.05756807573     -2.890103245e-05 
                   1                    2          -0.08088029         0.1967279262        0.03260623331        0.00544430845      3.160260386e-12      1.085005224e-55     1.511208273e-110         0.1830333464         0.1495783648          0.162889418        0.02217839859        0.08682975158      2.415696852e-05        0.00958214766      6.363215221e-06 
                   1                    1          14.91079077       0.007206914614        0.00119449406      0.0001994463465      1.157727182e-13      3.974799184e-57     5.536147915e-112       0.006945381458       0.005216297452       0.006320856718      0.0006911071324       0.004707369448      8.768136361e-07       0.002337508118      1.888541513e-07 
                   0                   15          -6.35778718        0.02555969022       0.002608323767      6.180021954e-05      3.381013424e-21      1.399532222e-93     3.580486701e-184       0.005032341336        0.00377502627       0.004811263425       0.000241488193       0.003478281428      2.624446068e-10       0.001066747422      7.305445757e-47 
                   1                    3           0.00492945       0.004699579973      0.0004795842998      1.136301229e-05      6.216563206e-22      2.573275946e-94     6.583328455e-185      0.0009252465478      0.0006947415453      0.0008846122167      4.438650227e-05      0.0006391372569      4.897619808e-11      0.0001939045359     -5.313384754e-48 
                   1                    1          14.93998416      6.745742338e-05      6.883917574e-06      1.631038381e-07      8.923208853e-24      3.693661264e-96      9.44966098e-187      1.307597336e-05      9.923571369e-06      1.247954883e-05      6.514658792e-07      8.870133657e-06      6.916970583e-13      2.167766782e-06      1.928061687e-49 
                   0                   16          -5.72737807         0.5036135727        0.06612548369       0.004770524089      2.655929221e-15      1.059020271e-71     1.070496756e-142         0.2383727765         0.1759446558         0.2237082117         0.0160786054         0.1500732134      9.301492344e-06        0.06228860245      1.118824426e-18 
                   1                    4           1.28555346       -0.00979529114      -0.001286141597     -9.278676127e-05     -5.165786106e-17     -2.059795932e-73     -2.08211771e-144      -0.004583030706      0.0002657660676      -0.004309691639     -0.0002976298703      -0.002474960442      6.920529814e-07       0.002927347265      -1.58072105e-19 
                   1                    1          14.94982152      0.0006105806833       8.01704823e-05      5.783779501e-06      3.220046414e-18       1.28395531e-74     1.297869391e-145      7.926780358e-05     -0.0001323151395      4.377776701e-05      3.876481289e-05     -0.0001650262564     -3.434213859e-08     -0.0002425612463      1.793450885e-21 
                   0                    8          -4.25881947         0.9092325462         0.1968793749        0.07160755061      3.252824998e-08      4.514180833e-39      3.503902196e-78          1.600108751          1.312958851          1.333207335         0.3002181048         0.7351505451       0.006602000528         0.2699550068      1.606646576e-15 
                   1                    1           1.17413291                   -0                   -0                   -0                   -0                   -0                   -0      8.562318432e-05       -0.07046417395      0.0007090768287     -0.0006815038746        0.01290411871     -0.0001220176566         0.1734728564     -3.242031318e-15 
                   1                    1          14.95676682                   -0                   -0                   -0                   -0                   -0                   -0      -0.004314958815       0.002026248275      -0.004474493162      0.0001903556952      -0.007439442416      0.0001168840342       -0.01309783449      3.751810006e-16 
                   0                    9          -3.63813584         0.8440593169          0.212304872         0.1102818972      1.125987777e-06      1.310896513e-31      2.561966694e-63          2.024556842          1.737677775          1.603738238         0.4788692086         0.7948608228        0.03747311369         0.1836230798       0.003694002107 
                   1                    2           2.39591971        -0.2833665365       -0.07127472568       -0.03702370038     -3.780152061e-07      -4.40092535e-32     -8.601002493e-64        -0.6796413478        -0.5807482191        -0.5372297334        -0.1616484687        -0.3099604694      -0.003318244531       -0.01661752986     -0.0005778646924 
                   1                    1          14.91079077         0.0106631321       0.002682080336       0.001393208291      1.422477802e-08      1.656075872e-33      3.236572213e-65         0.0267402635        0.01923330194        0.02306810872       0.004341804511         0.0201268433       0.001010349519        0.01969592041      0.0001124628939 
                   0                   10          -2.09778698         0.4652966629         0.2104931844         0.2734789276        0.00973065112      4.328661606e-12      2.504210115e-24          2.868390861          2.880860072          1.705881265            1.4618391         0.2667947451         0.4580655182        -0.2316857116         0.1595818594 
                   1                    3           0.00492945          0.259187631         0.1172525706         0.1523379835       0.005420336341      2.411226291e-12      1.394938625e-24          1.700706128          1.638500586         0.9505512947         0.8089298564         0.4940186079         0.0644924657         0.4657827884        0.01736645527 
                   1                    1          14.93998416       0.003720360087       0.001683034727        0.00218664815      7.780310699e-05      3.461056387e-14      2.002284587e-26       -0.02066888694       -0.03789354166       0.001386678262        0.01118385052       0.006385976325        0.01928039187      -0.003698998534         0.0249267413 
                   0                   11          -1.46737787         0.2318247761         0.1792783107         0.3344409884         0.3128803465       0.000254530711      9.861554232e-09          2.785584053          3.096413264         0.9526702132          2.226759213      -0.006159105774         0.6710593425       -0.05042811454         0.1525468219 
                   1                    4           1.28555346       -0.01758870505       -0.01360196861       -0.02537426758       -0.02373844686     -1.931141993e-05     -7.482028952e-10        -0.1163678623        -0.1365407355       -0.05913038566        -0.1820058882        0.05958648612        0.04161261736         0.1163999778        -0.5685886635 
                   1                    1          14.94982152       0.001096376146      0.0008478665075         0.0015816822       0.001479714783      1.203760032e-06      4.663855607e-11       -0.02908021815       -0.01388163841       -0.03640983208        0.02433835799       -0.02146148882        0.03287351366        0.01025803278        0.04054099332 
                   0                    1           0.62186436       -0.09228639702       -0.07694402796        -0.1477424301        -0.1796198446     -0.0004643886392     -7.632423834e-08         -1.328989027         -1.467448819        -0.3893095844          -1.00129791       -0.08276641505        -0.4894905928        0.06411181891         0.4329245138 
                   1                    2           2.39591971        -0.1816614717        -0.1514607332        -0.2908240885        -0.3535732933     -0.0009141273945     -1.502407062e-07         -2.279558819         -2.620853555        -0.6815475364         -2.039183943         0.1277947507        -0.5567232541        0.04536135841        -0.4732050891 
                   1                    1          14.91079077       0.006835952808       0.005699493761        0.01094376108        0.01330502459      3.439877301e-05      5.653583933e-09       0.002279501966       -0.05431891421        0.05353741728         0.0521485828         0.2073202196          0.124513206         0.2406124139         0.2781681016 
                   0                    2           2.16221322        -0.4843565691        -0.2135267866        -0.2701185053      -0.007560252568     -1.167656235e-12     -1.800886451e-25         -2.902630582         -2.801494582          -1.73168868         -1.433732563        -0.5602729138        -0.3419047634        -0.2948045128        -0.1572326089 
                   1                    3           0.00492945         0.2620559289         0.1155263786         0.1461447213       0.004090393597      6.317478872e-13      9.743503068e-26           1.59877979          1.728553702         0.9229444417         0.7916682711       -0.02567069525         0.3532162218        -0.4836718838        0.01343630447 