ITEM: TIMESTEP
0
ITEM: NUMBER OF ENTRIES
588
ITEM: BOX BOUNDS pp pp pp
0 4.26
0 2.4768
0 30
ITEM: ENTRIES c_2[1] c_2[2] c_2[3] c_2[4] c_2[5] c_2[6] c_2[7] c_2[8] c_2[9] c_2[10] c_2[11] c_2[12] c_2[13] c_2[14] c_2[15] c_2[16] c_2[17] 
                   0                   94           0.68329436       -0.01658762765      -0.001812288321      -5.95634519e-05     -5.582679221e-20     -1.029955204e-87     -9.11657616e-173      -0.004265660902      -0.003103935005      -0.004054695089     -0.0002307960329      -0.002914999396     -7.526530514e-10      -0.001931033356     -6.538323913e-36 
                   1                    2          -4.99717634          0.168303898        0.01838811403      0.0006043517097      5.664382477e-19      1.045028736e-86     9.249998469e-172        0.04337885586        0.03132513376        0.04130175239       0.002271466409        0.02989402711      6.515347845e-09        0.01631928839      2.416982061e-35 
                   1                    1          14.92867664     -0.0002298227427      -2.51093816e-05     -8.252557972e-07     -7.734841155e-22     -1.427010147e-89    -1.263108011e-174     -3.315059615e-05     -2.366597666e-05     -3.035224935e-05     -3.068851196e-06      -1.94294436e-05      2.289567796e-11     -2.569929397e-05      1.756937173e-37 
                   0                   77          -3.57670584          0.504615869        0.07821881912        0.01042732798       9.15794045e-13       8.96050326e-60      4.67897014e-119         0.3919887575          0.314444766         0.3546691665        0.04101002581         0.1998307065        1.1620988e-05         0.0431985976     -2.842387267e-26 
                   1                    2          -2.52037634         0.5207203254        0.08071511706        0.01076010874      9.450209603e-13      9.246471345e-60     4.828296142e-119         0.4048545484         0.3243879159         0.3669677048        0.04164978871         0.2140912988      9.120057375e-06        0.03532568364      3.135458241e-25 
                   1                    1          14.92867664      -0.001179257086     -0.0001827926991     -2.436804145e-05     -2.140155875e-15     -2.094015986e-62    -1.093447319e-121      0.0007577516464     -0.0003631539093       0.001055202473     -0.0003253507159       0.002807398009      1.739610942e-08       0.005059621717     -4.679943415e-27 
                   0                   78          -2.08454895         0.4443840642        0.09222794159        0.03001711368      5.206944722e-09      1.072212017e-41       4.32311359e-83         0.7024234085         0.6761445886         0.6003636607         0.1226009963         0.2728076111        0.01596289765        0.07157066928        0.01787213712 
                   1                    3          -2.57481645          0.787614755         0.1634624044        0.05320155141      9.228653371e-09      1.900360686e-41      7.662174065e-83          1.252750933         0.9773834575          1.062966925         0.2188787443           0.48427819         0.0279419775         0.2007476206        0.02473667607 
                   1                    1          14.97205536       -0.01071165529      -0.002223108339     -0.0007235474909     -1.255107946e-10     -2.584513365e-43     -1.042064878e-84        -0.0127190057       -0.09221427393       -0.01199408648       -0.00290945312      -0.003367478122      -0.000461815618         0.0259473682       -0.00201262439 
                   0                   79          -1.45627423         0.2036025712        0.03102392556       0.003896518982      2.082167295e-13      2.394655549e-61     8.638724229e-122         0.1512240912         0.1221911452         0.1378593042        0.01469158919        0.08336234422      1.845124565e-06      -0.005303743924      1.136597658e-25 
                   1                    4          -3.82245187         0.6761543103         0.1030289591        0.01294015144      6.914777073e-13      7.952535478e-61     2.868878614e-121         0.5018878536         0.4022854956         0.4557609529        0.05068114366         0.2606092696      1.270769969e-05        0.04868614408      3.661338228e-26 
                   1                    1          14.99741511       -0.01031635607      -0.001571953933      -0.000197433053     -1.055015125e-14     -1.213350065e-62    -4.377162556e-123      -0.007670209501      -0.006040666941      -0.007055506202     -0.0006765303762      -0.004595689209     -1.647112432e-07     -0.0005720668581     -3.406847104e-27 
                   0                   68           0.06846239                   -0                   -0                   -0                   -0                   -0                   -0     -0.0004432278927      -0.009395448285       0.001028295803        -0.0015336544        0.01377116138      7.107208967e-05        0.05001101568     -1.070908914e-05 
                   1                    1          -3.71247516         0.8137120297         0.1388539779        0.02547174737      3.272168883e-11      3.518983774e-53     3.615938187e-106         0.8137862148         0.5541357785         0.7270731873        0.09638498378         0.4286583304       0.003359805104         0.1953615447      1.902603596e-05 
                   1                    1           14.9201581                   -0                   -0                   -0                   -0                   -0                   -0       0.003003862081       0.002048016959       0.003026110641     -2.651371256e-05       0.002853279378      4.403207622e-07      0.0009867850127       -1.4837518e-07 
                   0                   69           0.68329436        -0.1431442917       -0.03637040606       -0.01931400936     -2.393700402e-07      -6.52328263e-32     -3.689571999e-63        -0.3462030624        -0.2724069518        -0.2718160536       -0.08617643135       -0.07782311745       -0.02142676904        -0.2970443941      -0.001384015206 
                   1                    2          -2.52037634         0.8757472749           0.22251173         0.1181618272      1.464450016e-06      3.990901012e-31      2.257255658e-62          2.137439152          1.833917118          1.691359967         0.5103316394         0.8685866509        0.05275578941         0.1921012515       0.004036923405 
                   1                    1          14.92867664      -0.001983274186     -0.0005039145229     -0.0002675969523     -3.316488669e-09     -9.038053766e-34     -5.111927842e-65       0.007717416064       0.005818911544       0.008683630918      -0.001184925204       0.007137856284     -0.0003692393858      -0.003598397374     -1.913269524e-05 
                   0                   70           2.17545125        -0.4377303053       -0.09155748455       -0.03042365819     -6.315103012e-09      -2.85029725e-41     -3.063140038e-82        -0.7135317533        -0.5088644505        -0.6045602084        -0.1227065306        -0.3566233874      -0.004327860265         -0.215825961     -3.718968892e-12 
                   1                    3          -2.57481645         0.7927679057         0.1658186203        0.05509990854      1.143720443e-08       5.16213786e-41      5.547614784e-82          1.293930725          1.084442799          1.094430808         0.2243720493         0.6198711045        0.00588994956         0.1819813848     -1.132869994e-12 
                   1                    1          14.97205536       -0.01078173876      -0.002255153158      -0.000749365376     -1.555473544e-10     -7.020569509e-43     -7.544822756e-84       -0.01517467105      -0.007468812733       -0.01323340868      -0.002220046595        -0.0100314453     -0.0001676752444       -0.01420135796      -6.90240903e-14 
                   0                   71           2.80372597        -0.2327091113       -0.03028742673      -0.002110042014     -8.840292265e-16     -1.063058891e-72    -2.413032662e-144        -0.1082525996       -0.08587159456        -0.1018308511      -0.007038964892       -0.06945635392     -6.326451962e-07       -0.02913447511     -1.118119545e-33 
                   1                    4          -3.82245187         0.4307959368        0.05606871298        0.00390615357      1.636533252e-15      1.967956683e-72     4.467056148e-144         0.2004128466         0.1431063277         0.1884492953        0.01311194775          0.127547281      1.292458273e-06        0.04912434835      1.153472585e-34 
                   1                    1          14.99741511      -0.006572825476     -0.0008554627228      -5.95977434e-05     -2.496924073e-17     -3.002590023e-74    -6.815565779e-146      -0.003073575287     -0.0001752322645      -0.002916245086     -0.0001724974565      -0.002129781009     -1.660527036e-08      -0.001402759076     -2.876217962e-35 
                   0                   73           4.94329456        -0.1942079864       -0.02204486761     -0.0008622748422     -3.364318883e-18     -1.719489041e-83    -1.549955265e-165       -0.05744179712       -0.04244248457       -0.05442064693      -0.003304425406       -0.03803012137     -8.234416046e-09       -0.01897780186     -1.634130378e-46 
                   1                    2          -2.52037634         0.1498540964        0.01701018469      0.0006653455387      2.595964129e-18      1.326786201e-83     1.195971134e-165        0.04428785183        0.03257499407        0.04193692887       0.002571734064        0.02928325137      4.671077567e-09        0.01537675272      3.630878434e-46 
                   1                    1          14.92867664     -0.0003393693245     -3.852236959e-05     -1.506784742e-06     -5.878989057e-21     -3.004726248e-86    -2.708473946e-168     -2.652802219e-05     -0.0001576458186     -1.466326678e-05     -1.294596009e-05      6.840543277e-05     -4.848161578e-11      0.0004950173824       3.55077783e-48 
                   0                   50          -5.71627443         0.1098592088        0.01172142569       0.000344698947      1.274531803e-19       6.62164201e-89     7.545329582e-176        0.02596943295        0.01898642639        0.02476653027       0.001315109113        0.01797940027      2.078952352e-09       0.008856890576      1.625249981e-57 
                   1                    4          -1.34565187        0.04912604522       0.005241502236      0.0001541399783      5.699358997e-20      2.961017911e-89     3.374065829e-176        0.01161989889       0.008487994772        0.01108337931      0.0005865038472       0.008042737671      1.102279703e-09       0.003790264256      1.015331823e-56 
                   1                    1          14.99741511      -0.001467204862     -0.0001565433882     -4.603564661e-06     -1.702177978e-21     -8.843414643e-91    -1.007702893e-177     -0.0003460870786     -0.0002442919018      -0.000329879698     -1.772072253e-05     -0.0002394874571     -2.792533142e-11     -0.0001406128234     -2.170573319e-59 
                   0                   42          -4.19153781         0.7091767466         0.1220831632        0.02302895094       3.74652031e-11      1.123147344e-52     4.151769392e-105         0.7256429701         0.5525791378         0.6446275151        0.09001250237         0.3692015627       0.002996103172         0.1505221509      2.801056142e-06 
                   1                    1          -1.23567516         0.4123213341        0.07098017947        0.01338922606      2.178258467e-11      6.530073264e-53     2.413873696e-105          0.421425773         0.3527320893         0.3757459625        0.05087793299         0.2278991349         0.0017578143         0.1067403571     -4.723446976e-07 
                   1                    1           14.9201581                   -0                   -0                   -0                   -0                   -0                   -0       0.003440440948       -0.02214910402       0.003934227426     -0.0005386033582       0.007195394017      3.692417053e-08        0.01953654723     -2.144257145e-08 
                   0                   43          -3.57670584         0.8422727137         0.2098875023         0.1068035161      9.100710471e-07      4.791773765e-32       3.47472941e-64          1.974870237          1.693162341          1.567203892         0.4649426925         0.7741314158        0.04189677233         0.2030504166       0.004902545988 
                   1                    2          -0.04357634         0.2968501537        0.07397264127        0.03764177522      3.207449627e-07      1.688810234e-32      1.224631811e-64         0.6987027822         0.6041236659         0.5551851375         0.1630461745          0.321919313       0.004366298383       -0.06409487545      0.0007872529515 
                   1                    1          14.92867664      -0.001968340924     -0.0004904945316     -0.0002495934252     -2.126781572e-09     -1.119808851e-34     -8.120234677e-67       0.008052366618      -0.004977798055        0.01155433697      -0.003894596632        0.03228587661      -0.000182914698        0.05805146075     -0.0001464488016 
                   0                   44          -2.08454895         0.4896268681         0.2080603232         0.2529358924       0.004950096399      1.579879323e-13      3.396685624e-27          2.811273071          2.835651797          1.694858736          1.335475083         0.2812652143         0.4368298355        -0.2149712568        0.07268313276 
                   1                    3          -0.09801645         0.3045406885         0.1294104515         0.1573223935       0.003078886931      9.826616308e-14      2.112688347e-27          1.726895983           1.57080236          1.055771838         0.8258335778         0.6040616525        0.09998053735         0.3909858266          0.146098509 
                   1                    1          14.97205536       -0.01180221042      -0.005015189883      -0.006096893001     -0.0001193195944     -3.808219979e-15     -8.187540572e-29       -0.02701176209      -0.005787751382       -0.02853139439       -0.02991930941        0.00620111705       -0.02380382948       -0.07508566634       -0.06657530341 
                   0                   45          -1.45627423         0.3658615862         0.1268820225           0.11861139      0.0002205934852      2.216120799e-19      1.127425383e-38          1.462010513          1.323855352          1.060001069         0.5776689987         0.2860382525         0.1917760178        0.06433777536         0.2515949576 
                   1                    4          -1.34565187         0.6206988261         0.2152604302          0.201228971      0.0003742456779      3.759737645e-19      1.912722293e-38          2.626945651          2.549184655          1.789535708         0.9890029743         0.5026094023         0.3039283958        0.02585748323         0.1234511726 
                   1                    1          14.99741511       -0.01853787195      -0.006428996035      -0.006009930646     -1.117727014e-05      -1.12288814e-20     -5.712561302e-40       -0.03375145035        0.04976390241       -0.05897182582       -0.02282369807       -0.04370557945       -0.01919638062       -0.04997035553        -0.0935326498 
                   0                   34           0.06846239                   -0                   -0                   -0                   -0                   -0                   -0        0.02664891014        -0.1558712023        0.01491543966       -0.01554036123         0.4401892853        -0.1679991007         0.6431167993       -0.01439328367 
                   1                    1          -1.23567516         0.5572350607         0.2433932895         0.3048959963       0.007813167168      8.180428237e-13      7.761829956e-26          3.225758479          3.258439362           1.98129996          1.610041789         0.5784824591         0.4618008476        0.03942006612         0.1543685095 
                   1                    1           14.9201581                   -0                   -0                   -0                   -0                   -0                   -0        0.04237513678        0.02626623508        0.04780014698      -0.007150778178        0.04329022797      -0.004635634427        0.01125171524     -0.0002107118386 
                   0                   35           0.68329436        -0.0943916662       -0.07562051908         -0.143064404        -0.1520346216     -0.0002170563499     -1.698434662e-08         -1.230634765         -1.433810106        -0.3526895137        -0.9922104726       -0.06326864905        -0.4982294153       -0.01766307482         0.4813139025 
                   1                    2          -0.04357634         0.1972328878         0.1580102773         0.2989353476         0.3176787598      0.0004535426952      3.548906239e-08          2.421157592          2.692710444          0.787452784          2.030531548       -0.07244565707         0.5246549526       -0.07381925271          0.432437394 
                   1                    1          14.92867664      -0.001307803145      -0.001047727587      -0.001982167336      -0.002106450328     -3.007330927e-06     -2.353193118e-10          0.081895755       0.001992801768        0.07668079552       -0.03726173945        0.04074355939       -0.05256309411        0.03827357012        -0.1741775998 
                   0                   36           2.17545125        -0.4758332107        -0.2058791986        -0.2552897839      -0.005969565311     -4.174798142e-13     -2.392267307e-26         -2.826316757         -2.723208332         -1.695085269         -1.327328551        -0.6241747057        -0.2516769585        -0.2773299302       -0.04592941532 
                   1                    3          -0.09801645         0.3024258513         0.1308508748         0.1622548163       0.003794083368      2.653381171e-13      1.520456035e-26           1.75393097          1.789760928          1.072050936         0.8552530709       0.009774495266         0.2962751742         -0.377661433         0.1598409367 
                   1                    1          14.97205536       -0.01172025174       -0.00507101224      -0.006288044774     -0.0001470364124     -1.028294875e-14     -5.892395579e-28       -0.03580976317       -0.01832873555       -0.03636260154       -0.02381092695       -0.02983378945       -0.03069135705       -0.04017963024       -0.06266540865 
                   0                   37           2.80372597        -0.6405951243        -0.1655158064       -0.09112360446      -1.55095277e-06     -1.700984144e-30     -5.479925797e-61         -1.620269348         -1.416783934         -1.274090745        -0.3944247427        -0.6571499356        -0.0248695776          0.107590926     -0.0008331662447 
                   1                    4          -1.34565187         0.6058196951         0.1565305941        0.08617685676      1.466757549e-06        1.6086443e-30      5.182441841e-61          1.531405399          1.310007909          1.198997744         0.3783471143         0.5264450958        0.03174692685         0.3431054415       0.002128128933 
                   1                    1          14.99741511       -0.01809348989      -0.004674963103      -0.002573769224     -4.380637191e-08      -4.80439801e-32     -1.547794828e-62        -0.0456318854       -0.03631271564       -0.03854870334      -0.008285270575       -0.02829723253      -0.001567111593       -0.01026072383     -0.0001916523244 
                   0                   38           4.32846259        -0.7091767466        -0.1220831632       -0.02302895094      -3.74652031e-11     -1.123147344e-52    -4.151769392e-105        -0.7258241288        -0.5532171918        -0.6462145785       -0.08825640036        -0.3684816738      -0.001584277791         -0.180990161     -2.623640303e-07 
                   1                    1          -1.23567516         0.4123213341        0.07098017947        0.01338922606      2.178258467e-11      6.530073264e-53     2.413873696e-105         0.4228735327         0.3636620007         0.3744685322        0.05353520647         0.2034268257      0.0007783018769        0.02938288102      4.351248575e-07 
                   1                    1           14.9201581                   -0                   -0                   -0                   -0                   -0                   -0       0.003339726724       -0.01486559348       0.003676007918     -0.0003633189085       0.006553312202      7.737138537e-06         0.0222446187     -2.190891766e-08 
                   0                   39           4.94329456        -0.7634481334        -0.1264669571       -0.02107870563       -1.2052892e-11     -3.877026475e-55     -4.97797487e-110        -0.7094809886        -0.5760632006        -0.6335236971       -0.08364656418        -0.3492272099      -4.01433351e-05       -0.05142501752     -3.157603429e-23 
                   1                    2          -0.04357634         0.2011972276        0.03332878823       0.005555029805      3.176389264e-12      1.021741942e-55     1.311883151e-110         0.1868209819         0.1488667846         0.1660036965        0.02291658165        0.08796827689      1.271069294e-05         0.0521321265     -3.416200524e-23 
                   1                    1          14.92867664      -0.001334089715     -0.0002209950611     -3.683404696e-05     -2.106186203e-14     -6.774921466e-58    -8.698777018e-113       0.001284134362     -0.0003453424613       0.001721453403     -0.0004792376491       0.004126592254       -8.9330338e-08       0.006770848375     -5.517763521e-26 
                   0                   16          -5.71627443         0.4727118292        0.06088858519       0.004069381283      1.216360251e-15      3.533159142e-73      1.36629841e-145         0.2127087531         0.1571896956         0.2002515348         0.0136447748         0.1355367869      1.042109203e-06        0.05505267085      2.187713405e-33 
                   1                    4           1.13114813       0.008986976136       0.001157585295      7.736517307e-05      2.312487201e-17       6.71707686e-75     2.597542614e-147       0.004031107135      0.0007964581482       0.003794069956      0.0002589313063        0.00240855601      4.495380994e-08      -0.001295115574     -1.605656037e-33 
                   1                    1          14.99741511      -0.006313217637     -0.0008131865254     -5.434788829e-05      -1.62448801e-17     -4.718647013e-75    -1.824735216e-147      -0.002813211979     -0.0005083234143      -0.002646318277     -0.0001828086558       -0.00174614131     -1.408804875e-08      0.0005680009206     -2.921761209e-35 
                   0                    8          -4.19153781         0.9092325462         0.1968793749        0.07160755061      3.252824998e-08      4.514180833e-39      3.503902196e-78          1.596947272          1.313055269          1.331910135         0.2982444001         0.7395501681       0.006935572077         0.2582497274      1.458429299e-06 
                   1                    1           1.24112484                   -0                   -0                   -0                   -0                   -0                   -0      0.0002527523803        0.04800032954      -0.000365914813      0.0006273541626      -0.008076527393     -0.0002743248096        -0.1424688328      1.187193002e-07 
                   1                    1           14.9201581                   -0                   -0                   -0                   -0                   -0                   -0       0.009147799828       -0.03019936105         0.0108514841      -0.001864984634        0.02321869011     -1.882471275e-05         0.1103306893      5.415689858e-09 
                   0                    9          -3.57670584         0.8458992486         0.2130808365         0.1110427257      1.166349862e-06      1.537723065e-31      3.510527263e-63          2.027644998          1.736978649          1.600343227         0.4857609505         0.7594521256        0.03629907422           0.28225295       0.001533708031 
                   1                    2           2.43322366        -0.2766389457       -0.06968496315       -0.03631489522     -3.814376202e-07     -5.028897805e-32     -1.148066466e-63        -0.6653328033         -0.602056402         -0.527073733        -0.1570940109        -0.3040783864      -0.003664795759         0.2811440697     -0.0001332640275 
                   1                    1          14.92867664      -0.001976815919     -0.0004979571626     -0.0002595002044     -2.725689826e-09     -3.593566774e-34     -8.203892118e-66       0.008313439207      -0.004271337398        0.01196123327      -0.004038310902        0.03073078097     -0.0001635469403        0.04676070078     -3.577491882e-05 
                   0                   10          -2.08454895         0.4805157476         0.2139919846         0.2735892925        0.00842291636      1.979837586e-12      5.160934709e-25           2.92688721          2.937678954          1.723517658          1.466180869         0.2807150477         0.4237435515        -0.2062965023         0.1628925312 
                   1                    3           2.37878355        -0.2539061989        -0.1130741119        -0.1445655375      -0.004450698416     -1.046153094e-12     -2.727055921e-25         -1.593649866         -1.491219093        -0.9106818463        -0.7709312016        -0.5237455548       -0.06658346075        -0.4484513725         0.0428902315 
                   1                    1          14.97205536       -0.01158259143       -0.00515816961      -0.006594732866     -0.0002030301802      -4.77229934e-14     -1.244017463e-26        -0.0365301778       -0.01690592452       -0.02855651844       -0.03281019343     -0.0003469171695       -0.02432868491        -0.1077498006       -0.06440513566 
                   0                   11          -1.45627423         0.2483989276         0.1844208215         0.3381107426          0.270208134      0.0001096832468      1.782481654e-09          2.851763666          3.151693168         0.9992590257          2.242415801       0.005502971001         0.6571313541       -0.07066627975         0.1214468475 
                   1                    4           1.13114813        0.01791660046        0.01330196635        0.02438736409        0.01948966215      7.911269702e-06      1.285674295e-10         0.1582289613         0.1517844761        0.07367743156         0.1603567143        0.00273361698       -0.08470808733        0.01492824123         0.4676655323 
                   1                    1          14.99741511       -0.01258614647      -0.009344434353       -0.01713176209       -0.01369119902     -5.557549798e-06     -9.031671514e-11       -0.06644885182       -0.01306941985       -0.08082931126       -0.07946815665        -0.2357800791         -0.160625925        -0.4053459784        -0.3688971201 
                   0                    1           0.68329436       -0.08971776122       -0.07654625663        -0.1481713237        -0.1938555534     -0.0006928441463     -1.706741019e-07         -1.315700498         -1.578702743         -0.321124833         -1.055218342      -0.008383328968        -0.4546630079          0.152678128         0.2043624656 
                   1                    2           2.43322366        -0.1739539297        -0.1484156756        -0.2872896479        -0.3758668836       -0.00134335677     -3.309203252e-07         -2.231985942         -2.515891302        -0.6702861324          -2.00628778        0.09995873609        -0.5568296921       0.002576247637        -0.3418341837 
                   1                    1          14.92867664      -0.001243045865      -0.001060553746      -0.002052924067      -0.002685882268     -9.599404166e-06     -2.364701633e-09         0.1555143646       -0.01499494008        0.08180201314       -0.04129148336        0.04477373931       -0.06466456347        0.05492163242        -0.2032732409 
                   0                    2           2.17545125        -0.4663236741        -0.2117311119        -0.2761050294       -0.01015615053     -5.230896698e-12     -3.634271594e-24          -2.92412688         -2.826238126          -1.73076717         -1.450269625        -0.5926521886          -0.34100203         -0.292410831        -0.1519275945 
                   1                    3           2.37878355        -0.2517892712        -0.1143232165          -0.14908161      -0.005483765639     -2.824398032e-12     -1.962307828e-24         -1.596434443         -1.723864015        -0.9189597709        -0.8041681637        0.07438606322        -0.3574063344         0.4951917181      -0.007292366325 
                   1                    1          14.97205536       -0.01148602227      -0.005215150764      -0.006800745258     -0.0002501562275     -1.288422597e-13     -8.951577362e-26       -0.02572926565      -0.006201925589       -0.03734530979       -0.02581317161       -0.03154413144       -0.04741672173       -0.04713953984       -0.07475937454 
                   0                    3           2.80372597        -0.6409146248        -0.2487086466        -0.2713751039      -0.002012972153     -8.943326222e-16     -9.206965613e-32         -3.213971042         -3.114185072         -2.089294213         -1.360320789        -0.5037887721        -0.4110348088       -0.03945509106         -0.163412929 
                   1                    4           1.13114813        0.02576924664       0.009999825574        0.01091117555      8.093554725e-05      3.595842103e-17      3.701843561e-33        0.08505063206        0.01220062161        0.08838497976        0.05017320522        0.03004485708        0.04472511634         0.1191452271         0.2769916698 