ITEM: TIMESTEP
0
ITEM: NUMBER OF ATOMS
4
ITEM: BOX BOUNDS pp pp pp
0.0000000000000000e+00 4.2600002000000003e+00
0.0000000000000000e+00 2.4767999999999999e+00
0.0000000000000000e+00 3.0000000000000000e+01
ITEM: ATOMS id type c_1[1] c_1[2] c_1[3] c_1[4] c_1[5] c_1[6] c_1[7] c_1[8] c_1[9] c_1[10] c_1[11] c_1[12] c_1[13] c_1[14] c_1[15] c_1[16] c_1[17] c_1[18] c_1[19] c_1[20] c_1[21] c_1[22] 
1 1          13.96320303           12.6039576          8.791366011          6.107118889          1.172648585         0.3487490419      0.0001244763729      8.027404782e-09          48.64251637          43.37048192          46.05863216          35.28448261            36.207366           14.6111906          21.54715874           4.20632365          15.37089889          2.520512456           5.12922235         0.9113543692          3.256402237         0.7316043761 
2 1          13.95450399          12.59511762          8.789051984          6.117184043          1.217162764         0.3776582159      0.0001423703165      8.594728674e-09          48.58197245           43.3721265          45.96968232          35.34417501           36.0786062          14.72608521           21.3728572          4.282552375          15.19276737          2.589025781          4.987406467         0.9592388527          3.165627824         0.7955410922 
3 1          13.95858205          12.59905554          8.791195534          6.116360546          1.208347698         0.3744669862       0.000199356091      2.989645595e-08          48.58312054          43.37757825          45.97249394          35.34474288          36.10804678          14.71155004          21.37830586          4.271613082          15.17540295          2.585355226           4.94594044         0.9802610517          3.132855651         0.8481608235 
4 1          13.95928147          12.60003091          8.786046004          6.099008738          1.162141688         0.3455307908      0.0001814621476      2.932913206e-08          48.63888667          43.35293927          46.07240225          35.27034672          36.22558276           14.5553259          21.55447102          4.161026923          15.36053059          2.483556598          5.058993512         0.8626972848          3.177971071         0.6418797294 
