ITEM: TIMESTEP
0
ITEM: NUMBER OF ATOMS
4
ITEM: BOX BOUNDS pp pp pp
0.0000000000000000e+00 4.2600002000000003e+00
0.0000000000000000e+00 2.4767999999999999e+00
0.0000000000000000e+00 3.0000000000000000e+01
ITEM: ATOMS id type c_1[1] c_1[2] c_1[3] c_1[4] c_1[5] c_1[6] c_1[7] c_1[8] c_1[9] c_1[10] c_1[11] c_1[12] c_1[13] c_1[14] c_1[15] c_1[16] c_1[17] c_1[18] c_1[19] c_1[20] 
1 1           13.9597565          12.60071101          6.097661019          1.151927588         0.5250019025         0.3319029866      7.323595292e-05      2.196678406e-09          49.35512323           45.8300668          41.36318191          23.32211402          21.57192318          4.122434159          15.36879177          2.443036774          5.046597038          0.869642501          3.190676603          0.713987832 
2 1          13.95366984          12.59411539          6.118403109          1.220160176         0.5826314768          0.379505182      0.0001569646264       1.27531143e-08          49.35755738          45.91435951          41.22449468          23.53884045          21.31153259           4.26246028          15.10093616          2.568809634          4.861470762         0.9200676667          3.057876305         0.7470513769 
3 1           13.9552652          12.59566311          6.120349824          1.223706707         0.5861611023         0.3827031082      0.0001689856203      1.435029027e-08          49.34773804          45.91468609           41.2184419           23.5497131          21.31627786          4.282180445          15.10685294          2.587881209          4.868421307         0.9430884445          3.067958591         0.7777610981 
4 1          13.96150124            12.602403          6.099837838          1.155677278         0.5286062519         0.3351342254      8.525694683e-05      3.793854368e-09          49.35839843          45.83893185          41.35790633          23.33280042          21.57725645          4.141851852          15.37572014           2.46135762          5.055530463         0.8909799997          3.203381699         0.7438787572 
