ITEM: TIMESTEP
0
ITEM: NUMBER OF ENTRIES
588
ITEM: BOX BOUNDS pp pp pp
0 4.26
0 2.4768
0 30
ITEM: ENTRIES c_2[1] c_2[2] c_2[3] c_2[4] c_2[5] c_2[6] c_2[7] c_2[8] c_2[9] c_2[10] c_2[11] c_2[12] c_2[13] c_2[14] c_2[15] c_2[16] c_2[17] 
                   0                   78          -2.15198721         0.4581547504        0.09744703726        0.03383920855      1.028738027e-08      2.463383501e-40      2.129011975e-80          0.768493816         0.5664713204         0.6511172742         0.1372746011         0.2948377874         0.0134558249         0.1818836505        0.01465620628 
                   1                    3          -2.54994232         0.7836821652         0.1666849576        0.05788259142      1.759675402e-08      4.213662991e-40      3.641714318e-80          1.316741496          1.136583711           1.11043279         0.2357099815         0.4949779299        0.02288657735         0.1537341992        0.02012057172 
                   1                    1          15.01788824      -0.003885274695     -0.0008263769124     -0.0002869655298     -8.723973335e-11     -2.089015027e-42     -1.805459039e-82      -0.007444415425       -0.04579712639      -0.004627732027      -0.001508664948       0.001783030387     -6.033894966e-05        0.03906000973       0.001414314192 
                   0                   79          -1.32362015         0.1946535311        0.03082728834       0.004423156707      7.184000384e-13      9.982022845e-59     1.430661746e-116         0.1612767419         0.1300473746          0.145944295        0.01687474282        0.08800440382      1.971059562e-06       0.001816104186      8.712367299e-24 
                   1                    4          -3.82354114         0.7216272716          0.114284143        0.01639770154      2.663281045e-12      3.700575001e-58     5.303805828e-116         0.5967025075         0.4799467344         0.5371546671        0.06549156815         0.3040769308      1.906192426e-05        0.06045720884      4.353460987e-24 
                   1                    1          15.06229874      -0.009080938598      -0.001438148648     -0.0002063482447     -3.351465859e-14     -4.656793844e-60    -6.674295298e-118      -0.008562592176      -0.006620044315       -0.00796964197     -0.0006532799929      -0.005559904731     -2.412810926e-07      -0.001030298112     -1.568269553e-25 
                   0                   68           0.02385697                   -0                   -0                   -0                   -0                   -0                   -0     -0.0009788689972      -0.007065319161      0.0008960267997        -0.0019782452       0.008978977095      0.0001059190114        0.04195025609     -1.353942805e-06 
                   1                    1          -3.78172065         0.8137120297         0.1388539779        0.02547174737      3.272168883e-11      3.518983774e-53     3.615938187e-106         0.8156375538         0.5577811113         0.7285032692        0.09639358142            0.4205197       0.001343302285         0.1866683921      5.316437737e-06 
                   1                    1           14.9994365                   -0                   -0                   -0                   -0                   -0                   -0      0.0008454595547       0.001063011584      0.0006996496232      0.0001557970384     -0.0002056576358     -6.028812819e-06      -0.002499105644      7.819578785e-08 
                   0                   69           0.74523777       -0.03143199001      -0.003607790958      -0.000148279235     -8.649254339e-19     -2.219849761e-83    -1.472788818e-164      -0.009660888523      -0.007155752275      -0.009133075201     -0.0005781899477      -0.006452506186     -5.260288706e-08      -0.004248221495      1.435656616e-31 
                   1                    2          -4.91024909         0.2650103806        0.03041812035        0.00125017654      7.292386462e-18      1.871606697e-82      1.24174233e-163        0.08149255003        0.05996873276        0.07722388305        0.00467135605        0.05438928001      2.742329403e-07        0.02736782511      4.027288604e-31 
                   1                    1          14.95777378       0.001815327215      0.0002083648255      8.563738111e-06      4.995301535e-20      1.282054901e-84     8.505963582e-166      0.0006294019373      0.0004633599322      0.0006003309831      3.180808246e-05      0.0004379178056      3.097179989e-09      0.0002546767987     -6.175070949e-33 
                   0                   70           2.10801299        -0.4441817258       -0.09598943611        -0.0347349858     -1.509531641e-08     -1.725941022e-39     -1.051693285e-78        -0.7796132147        -0.6885806794        -0.6549462496        -0.1402678464        -0.3613931456      -0.003960912116       -0.03827531643      -1.23511249e-12 
                   1                    3          -2.54994232         0.7932060539         0.1714149804         0.0620286685       2.69567514e-08      3.082132353e-39      1.878081496e-78          1.389356502          1.103648618          1.166645742         0.2508913543         0.6605103717       0.007260290469         0.2910622446     -3.940774102e-13 
                   1                    1          15.01788824      -0.003932491444     -0.0008498270287     -0.0003075206082     -1.336439551e-10     -1.528034115e-41     -9.310997286e-81      -0.006708907615        0.02693105218      -0.006695583211     -7.210003114e-05       -0.01394527595     -8.283624596e-05       -0.07946868129      3.615889657e-14 
                   0                   71           2.93638005        -0.2391170693       -0.03083630231      -0.002070672946     -6.432176032e-16     -2.196360475e-73    -1.038927135e-145        -0.1078963612       -0.07626389687        -0.1015498766      -0.006951094534       -0.06830892824     -5.573866725e-07       -0.02578102925      -1.03646065e-33 
                   1                    4          -3.82354114         0.4101221775        0.05288895304       0.003551519346      1.103216114e-15      3.767092592e-73     1.781918205e-145         0.1849959997         0.1386486348         0.1740629454        0.01197577689         0.1172948663      9.583862117e-07        0.04623061299       1.28240206e-33 
                   1                    1          15.06229874       -0.00516096669     -0.0006655531933       -4.4692226e-05     -1.388284255e-17     -4.740499406e-75    -2.242361181e-147      -0.002569404333       0.001495247774      -0.002481875533     -9.618586649e-05      -0.002155548251     -1.067479064e-08       -0.00355364365     -3.101517527e-35 
                   0                   50          -5.58362035           0.22978495        0.02617189644       0.001039334656      4.586896036e-18      3.839289653e-83     6.368316029e-165        0.06862437071        0.05046184784        0.06506081136       0.003899247938        0.04613362198      6.100262449e-08        0.02329375031      8.554705642e-30 
                   1                    4          -1.34674114         0.1032088139        0.01175521021      0.0004668212478      2.060222393e-18      1.724432046e-83     2.860354188e-165        0.03085691861        0.02286913033        0.02927761093       0.001727722921         0.0208469433      1.764183889e-08       0.009870127437      3.183591614e-30 
                   1                    1          15.06229874      -0.002575988426     -0.0002933982505     -1.165138989e-05      -5.14210835e-20      -4.30400934e-85    -7.139157017e-167      -0.000810847506     -0.0005144452801     -0.0007734134673      -4.09871624e-05     -0.0005926892922     -9.322881581e-10     -0.0006495956742     -1.111299543e-31 
                   0                   42          -4.23614323         0.7091767466         0.1220831632        0.02302895094       3.74652031e-11      1.123147344e-52     4.151769392e-105         0.7239201097         0.5985625585         0.6437847975        0.08876778081         0.3651918289       0.001465728443         0.1366389584      1.681319614e-06 
                   1                    1          -1.30492065         0.4123213341        0.07098017947        0.01338922606      2.178258467e-11      6.530073264e-53     2.413873696e-105         0.4196705607         0.2412100075         0.3752900219        0.04929190849         0.2287506775      0.0009925777589         0.1296079805       1.93592116e-07 
                   1                    1           14.9994365                   -0                   -0                   -0                   -0                   -0                   -0       0.001122609268       -0.08958708194       0.001470946201     -0.0003810763831       0.002933582526     -3.969659731e-06       0.004547537347       3.51627936e-08 
                   0                   43          -3.51476243         0.5508257144        0.09091769235        0.01497595721      7.753572987e-12      1.621965763e-55     1.216929387e-110         0.5062719538          0.411948075         0.4519970925          0.059754103         0.2424814683       3.38936079e-05        0.03869137354      2.345452353e-23 
                   1                    2          -2.43344909         0.5612097231        0.09263164666        0.01525827966      7.899741126e-12      1.652542597e-55     1.239870591e-110         0.5151832912         0.4182727475         0.4613644341        0.05928571559         0.2573003792      3.713141859e-05        0.03037708531        3.5085225e-23 
                   1                    1          14.95777378       0.006485268664       0.001070439607      0.0001763227523      9.128841049e-14      1.909657349e-57     1.432778792e-112       0.008227800065       0.005368065357       0.008006646994       0.000247992429       0.007937505641      5.594677123e-07       0.005815863695      1.697692983e-25 
                   0                   44          -2.15198721         0.4922691909         0.2120166571         0.2615940774       0.005849106478          3.35796e-13      1.503640169e-26          2.820035429          2.802847503          1.745689973          1.368942274         0.2905380909         0.4034219767        -0.2151120881          0.146334264 
                   1                    3          -0.07314232         0.2816772523         0.1213162849         0.1496845675       0.003346868485      1.921430314e-13      8.603854135e-27          1.725971267          1.650207377         0.9951756626         0.7787636443         0.6414687633        0.08376805819         0.4360575985        0.05384810789 
                   1                    1          15.01788824      -0.004174574266        -0.0017979579       -0.00221838767     -4.960198573e-05       -2.8476398e-15     -1.275127039e-28        0.07529326359         0.1550530376      -0.008942512874       -0.01451552865        0.03188215282      5.171647521e-05       -0.06175990691       -0.02690613924 
                   0                   45          -1.32362015         0.3197793349         0.1179129663         0.1202869734      0.0004883796389      1.526416882e-17      5.698539719e-35          1.451075949          1.526052117          1.001236341         0.5885384135         0.2875965227         0.1803256946       -0.06633630879         0.1224374794 
                   1                    4          -1.34674114         0.5977116592         0.2203955885          0.224832935      0.0009128488693      2.853083572e-17      1.065135629e-34          2.697670271          2.603200151          1.852751331          1.113647464         0.4490556719         0.3378374358        0.09256096481         0.2275611948 
                   1                    1          15.06229874       -0.01491828321      -0.005500852723      -0.005611604439     -2.278379174e-05     -7.121010289e-19     -2.658471644e-36        -0.8412381743       -0.01007412319       -0.07096376423       -0.01875476639       -0.05911070652      -0.009013073293       -0.07008960466         0.0107330793 
                   0                   34           0.02385697                   -0                   -0                   -0                   -0                   -0                   -0        0.01607306472        -0.1098312689        0.01120537296         -0.013704145         0.3575709131        -0.1345208978         0.5485529871      -0.006573269626 
                   1                    1          -1.30492065         0.5572350607         0.2433932895         0.3048959963       0.007813167168      8.180428237e-13      7.761829956e-26          3.238662837          3.268830304          2.006344639            1.5898455          0.529792471           0.43462576        0.03253327246          0.150011066 
                   1                    1           14.9994365                   -0                   -0                   -0                   -0                   -0                   -0         0.0105899495        0.01562809385        0.01111963277      0.0004199094832       -0.01607824309       0.007463145217       -0.03230519564      0.0003904143975 
                   0                   35           0.74523777        -0.1706297688       -0.04554600823       -0.02684342433     -8.326685296e-07     -1.273730234e-29     -1.104590748e-58        -0.4581260687        -0.3754575356        -0.3536449357        -0.1201015725        -0.1025470799       -0.02339552766        -0.3838141414      -0.003251498032 
                   1                    2          -2.43344909         0.8527761733         0.2276305646         0.1341584932      4.161524026e-06      6.365869228e-29      5.520541214e-58          2.295119945          2.002105428          1.785344508         0.5837061296         0.8627370458        0.05783008137        0.08300290022       0.005543551059 
                   1                    1          14.95777378       0.009854573729       0.002630470048         0.0015503186      4.809004593e-08      7.356318061e-31      6.379467687e-60        0.03961922737        0.02965705924        0.03502444902       0.005342009064        0.02236987291       0.001356526734        0.02790626342      0.0001884063239 
                   0                   36           2.10801299        -0.4644099828        -0.2075938174        -0.2664365146      -0.008492856825     -2.326810799e-12     -7.345375956e-25         -2.909751431         -2.831962409         -1.703573457         -1.399960793        -0.7048882236         -0.286272325        -0.3193822012        -0.1088691611 
                   1                    3          -0.07314232         0.2774266834         0.1240112539         0.1591623809       0.005073416139      1.389977448e-12      4.387940323e-25           1.60983126          1.673905464         0.9878353489         0.8669643057        -0.0802701955         0.3638768624        -0.4784408623         0.1159555487 
                   1                    1          15.01788824      -0.004111579063      -0.001837898463      -0.002358852814     -7.519014147e-05     -2.060004504e-14     -6.503110422e-27        0.03649075475        0.08520848948       -0.02313644326      -0.002213236249       -0.04645136953       -0.02578653573       0.009720867688        -0.0275673337 
                   0                   37           2.93638005         -0.674357542        -0.1688957202       -0.08691052047     -8.169217435e-07     -6.615990115e-32     -8.215984309e-64         -1.604922965         -1.384860579         -1.279953183        -0.3700404906        -0.6844312579       -0.02407942004       0.009923658093      -0.001441048364 
                   1                    4          -1.34674114         0.5831544253         0.1460535109        0.07515635469      7.064376094e-07      5.721214152e-32      7.104818008e-64          1.383445646          1.166076678          1.097672681         0.3260055761         0.5251976608        0.03340400698         0.3336193337       0.001652890889 
                   1                    1          15.06229874       -0.01455494926      -0.003645349069      -0.001875827194     -1.763197382e-08      -1.42795764e-33     -1.773291278e-65       -0.04196729203       -0.02471004617       -0.03850231065      -0.004206574439       -0.04481308659      -0.001540645705       -0.05279470327     -7.203645958e-05 
                   0                   38           4.28385717        -0.7091767466        -0.1220831632       -0.02302895094      -3.74652031e-11     -1.123147344e-52    -4.151769392e-105        -0.7242798075        -0.5113803912        -0.6457521625       -0.08739474972        -0.3831767693      -0.002991864201        -0.1927967365     -1.255120808e-06 
                   1                    1          -1.30492065         0.4123213341        0.07098017947        0.01338922606      2.178258467e-11      6.530073264e-53     2.413873696e-105          0.421521152         0.3972479493         0.3740126004        0.05275847093         0.2095434822       0.001689507547        0.04724257252       3.19246244e-06 
                   1                    1           14.9994365                   -0                   -0                   -0                   -0                   -0                   -0      0.0009499166138        -0.0504310184      0.0009748947818     -2.285434873e-05       0.001886618941      2.309045775e-06        0.01118935739     -1.875933858e-07 
                   0                   39           5.00523797        -0.2030521406        -0.0231122241     -0.0009151978536     -3.945882008e-18     -3.007937986e-83    -4.444572916e-165       -0.06029466756       -0.04420252989       -0.05718331277      -0.003403958339       -0.04048224627     -1.899986995e-08       -0.02098569052     -1.001027435e-41 
                   1                    2          -2.43344909         0.1469611855        0.01672772246      0.0006623843569      2.855874832e-18      2.177027689e-83     3.216807776e-165        0.04361555341        0.03180430914        0.04135154854       0.002477256008        0.02926144115      9.321521974e-09        0.01594151922      1.186440273e-41 
                   1                    1          14.95777378       0.001698264895      0.0001933034476       7.65442995e-06      3.300212878e-20      2.515745696e-85     3.717302429e-167      0.0005761102155      0.0002538288661      0.0005555664787      2.251090036e-05       0.000464960556      1.976518101e-10      0.0007694867119      1.551058573e-44 
                   0                   40           6.36801319       -0.02578971658      -0.002632155694     -6.240702851e-05     -3.435982313e-21     -1.456968003e-93    -3.829823337e-184      -0.005094857883      -0.003778717851      -0.004865264895     -0.0002508776227       -0.00350713991     -7.266915915e-10      -0.001189228073     -1.371269863e-46 
                   1                    3          -0.07314232        0.00506115469      0.0005165526768      1.224719256e-05       6.74301245e-22      2.859256098e-94     7.515913672e-185       0.001000184509      0.0007427439454      0.0009549810918      4.939314091e-05       0.000687834494      1.298065206e-10      0.0002491776267      2.506488664e-47 
                   1                    1          15.01788824      -7.50084217e-05     -7.655525939e-06     -1.815084976e-07     -9.993425459e-24     -4.237536694e-96    -1.113889728e-186      -1.46395503e-05     -1.002369181e-05       -1.3950328e-05     -7.530978465e-07     -9.852925016e-06     -1.984744166e-12     -2.971681366e-06     -3.987088071e-49 
                   0                   16          -5.58362035         0.5662968175        0.07747818637       0.006559082401      1.348628304e-14      1.362152395e-68     1.365295608e-136         0.3055380138         0.2249182275         0.2856756684        0.02181110742         0.1906427422      3.420340635e-05        0.07791985824      1.040143595e-15 
                   1                    4           1.13005886       0.004223434005      0.0005778312659      4.891754782e-05      1.005805165e-16      1.015891414e-70     1.018235617e-138       0.002219349702      -0.002283920077        0.00208689321      0.0001427230442      0.0008226883848     -2.323638702e-06      -0.004167015146      2.050779651e-16 
                   1                    1          15.06229874      -0.006348431643     -0.0008685638957     -7.353014351e-05     -1.511870513e-16     -1.527031603e-70    -1.530555279e-138      -0.003784105565       0.003751237935      -0.003592747693     -0.0002104193884      -0.002642273015     -5.060324222e-07       0.001380866447      -5.85407814e-18 
                   0                    8          -4.23614323         0.9092325462         0.1968793749        0.07160755061      3.252824998e-08      4.514180833e-39      3.503902196e-78           1.59390151          1.295828162          1.333014439         0.2941250654          0.751741592       0.009718748107         0.2873433365       1.11871008e-06 
                   1                    1           1.17187935                   -0                   -0                   -0                   -0                   -0                   -0     -0.0003935800337        0.05536754193     -0.0006208396946      0.0003550261124      -0.009502754929      0.0009213686772       -0.09891307213      3.472147389e-09 
                   1                    1           14.9994365                   -0                   -0                   -0                   -0                   -0                   -0       0.002947539265       -0.07705815646        0.00423967814      -0.001399522262        0.01258858191      0.0001280032174         0.1068773256      1.255523705e-09 
                   0                    9          -3.51476243         0.8336907873         0.2194835688          0.125709032      3.030539703e-06       1.53239635e-29       3.33267415e-59          2.181383244          1.887469018          1.695247269         0.5556596996         0.8195032126        0.05053606539         0.2186941342       0.005056710316 
                   1                    2           0.04335091         0.2658787672        0.06999719988        0.04009083818      9.664928203e-07      4.887083539e-30       1.06284885e-59         0.6957294502          0.607459062         0.5428103538         0.1747071917         0.3306730058       0.007752041683         -0.102500038     -0.0005843822641 
                   1                    1          14.95777378       0.009815643309       0.002584138455       0.001480063157      3.568073105e-08      1.804200815e-31      3.923797794e-61        0.03926587166        0.01700166313        0.03857489433       0.001142373358        0.05818556509       0.001195522699        0.08035450818      8.312209049e-05 
                   0                   10          -2.15198721          0.491681609         0.2124092707         0.2629480284       0.006057102242      3.965050424e-13       2.09192442e-26          2.819118652          2.827477317          1.728060205          1.396980811         0.2917432821         0.4757212797        -0.2508146048         0.1562831406 
                   1                    3           2.40365768        -0.2783484023        -0.1202481038        -0.1488588596      -0.003429017276     -2.244675071e-13     -1.184270083e-26         -1.716764051         -1.623410971        -0.9889223388        -0.7724563542        -0.5701566061        -0.0781271548        -0.5290661855       -0.03260718888 
                   1                    1          15.01788824      -0.004169591414      -0.001801287368      -0.002229869537     -5.136584538e-05       -3.3624687e-15     -1.774007801e-28         0.0332956774        0.08600353823      -0.008649120758       -0.01488574104        0.02690963549       0.003234354357       -0.09086960284       -0.02627182845 
                   0                   11          -1.32362015         0.1976607436         0.1675629583         0.3236348922         0.4149800367       0.001357069543      2.991686847e-07          2.617846927          2.990169745         0.7552209533          2.270217008        -0.1011015367         0.6794428946       -0.08520848017         0.1900812344 
                   1                    4           1.13005886       0.006134626725       0.005200507615        0.01004437817        0.01287937896       4.21182018e-05      9.285041505e-09       -0.02697069166        0.01543202602      -0.004868297034        0.09802554653       -0.06666133808        0.06866573985        -0.2463055029         0.3010611835 
                   1                    1          15.06229874      -0.009221230491      -0.007817114477       -0.01509815192        -0.0193595678     -6.330974385e-05     -1.395675917e-08        0.01212625641         0.1269507537        -0.1219200323       -0.05041263902        -0.3283478955        -0.1453209216        -0.4795304446        -0.4686162629 
                   0                    1           0.74523777        -0.1051782347       -0.08982812511        -0.1739417317         -0.228292238     -0.0008273879336     -2.074032742e-07         -1.177221921         -1.492264058        -0.4251448898         -1.196711551        0.09904895448        -0.3612874069       -0.03389014242        -0.5793933556 
                   1                    2           0.04335091         0.1645408766         0.1405271583         0.2721145215         0.3571404773       0.001294366046      3.244617732e-07          2.308912702          2.561456363         0.6111682006          1.923849545       -0.04234063772         0.6105959506        -0.1110441035       -0.06657686062 
                   1                    1          14.95777378       0.006074477369       0.005187945152        0.01004585327        0.01318481943       4.77850697e-05      1.197839552e-08        0.08791713414        -0.0337123582         0.1279263183        0.01837433991         0.2717556258        0.06489483916         0.3389854155        0.08935329739 
                   0                    2           2.10801299        -0.4637701791        -0.2079759828         -0.267811675      -0.008794699646      -2.74742447e-12     -1.021897999e-24         -2.915308793         -2.867955363         -1.677418605         -1.437344892        -0.6039631297        -0.3084761546        -0.3237862774         -0.114888688 
                   1                    3           2.40365768         -0.274097549        -0.1229180092        -0.1582821126      -0.005197845237     -1.623783389e-12     -6.039623709e-25         -1.585601471         -1.651670805         -0.985029119        -0.8566910169        0.08142627891        -0.3881741246           0.48465902         -0.107953611 
                   1                    1          15.01788824      -0.004105914664      -0.001841281902      -0.002371027576     -7.786245832e-05     -2.432388051e-14     -9.047209523e-27        0.08035663634         0.1565641633       -0.02259863245      -0.002850524157       -0.03065638707       -0.02905435203        0.01759598555       -0.02847214653 
                   0                    3           2.93638005        -0.6945550479        -0.2500782041        -0.2468185544     -0.0007455986395     -6.338220388e-18     -4.649917899e-36         -3.086291756         -2.965591242         -2.087462405         -1.228227693        -0.5483680537        -0.3853567055       -0.05968131709        -0.2329228272 
                   1                    4           1.13005886       0.009973013651       0.003590836105       0.003544031275      1.070594107e-05      9.100957317e-20      6.676748635e-38      -0.001540176201       -0.06595362869        0.02035196421         0.0271094828       -0.03957579562        0.01791344572        0.01241591976         0.1379430533 
                   1                    1          15.06229874       -0.01499088073      -0.005397545582      -0.005327191159     -1.609257655e-05     -1.368005404e-19     -1.003611806e-37       -0.01485270779         0.1154436457       -0.07367479919       -0.01327965853       -0.05381445086       -0.02998760461       -0.09448542905         -0.207950038 
                   0                    4           4.28385717        -0.9092325462        -0.1968793749       -0.07160755061     -3.252824998e-08     -4.514180833e-39     -3.503902196e-78          -1.58336255          -1.31848565         -1.324843644        -0.3017380584        -0.5864982452       -0.04240699666        -0.2328065496       -0.03867463413 
                   1                    1           1.17187935                   -0                   -0                   -0                   -0                   -0                   -0       -0.00276457792        0.08515736028       -0.00162193378       0.001639209782       -0.00644534233      0.0002482474259       -0.04520675929       0.004179185367 
                   1                    1           14.9994365                   -0                   -0                   -0                   -0                   -0                   -0       0.006493824035        -0.1238891762       0.002656821166     -0.0001407480811       0.009083476577     -0.0003685626781        0.05222597148      -0.006281919545 
                   0                    5           5.00523797        -0.7502681812         -0.121521031       -0.01880557874     -5.758990284e-12     -1.240962221e-56    -5.450902214e-113        -0.6539642485        -0.5286312603         -0.587368742       -0.07348681464        -0.3298085299     -0.0008168436621        -0.0521588551     -0.0001748291408 
                   1                    2           0.04335091         0.1699727405        0.02753050602       0.004260390932      1.304695288e-12      2.811391379e-57     1.234898148e-113         0.1480872355         0.1165332444         0.1321370568        0.01757775367        0.06818617089      0.0001535177214        0.05680586488      4.729710322e-05 