ITEM: TIMESTEP
0
ITEM: NUMBER OF ATOMS
4
ITEM: BOX BOUNDS pp pp pp
0.0000000000000000e+00 4.2600002000000003e+00
0.0000000000000000e+00 2.4767999999999999e+00
0.0000000000000000e+00 3.0000000000000000e+01
ITEM: ATOMS id type c_1[1] c_1[2] c_1[3] c_1[4] c_1[5] c_1[6] c_1[7] c_1[8] c_1[9] c_1[10] c_1[11] c_1[12] c_1[13] c_1[14] c_1[15] c_1[16] c_1[17] c_1[18] c_1[19] c_1[20] c_1[21] c_1[22] 
1 1          13.95815082          12.59829434          8.793896177          6.126435093          1.235439262         0.3910079727      0.0002201749072      2.601672013e-08          48.61378803          43.46137919           45.9817352          35.44383765           36.0730704          14.78283244          21.31258204          4.345718427          15.10253694          2.663271442          4.873916807          1.006098401          3.053561605         0.8358606195 
2 1          13.97017753          12.61097781          8.791088602          6.092779269          1.126066051         0.3213851771      0.0001389899575      1.803778546e-08          48.66205212          43.29569417          46.11183675          35.16266991          36.37466088          14.45445107          21.74427183           4.10800371          15.54693806          2.448652601          5.185582225         0.9158610034          3.281915728         0.7894337135 
3 1          13.96426934          12.60491164          8.791354557          6.105261502          1.165488754         0.3435664742       0.000145909542      1.553499384e-08          48.66988712          43.30893272          46.09775348          35.19523973          36.26405167           14.5692044          21.66706492          4.165909502          15.51492602          2.469048929          5.250902116         0.8906088222           3.38426496         0.7284706644 
4 1          13.95337181          12.59349854          8.793231053          6.133917642           1.26430883         0.4111469587      0.0002270944883      2.351392851e-08          48.60748808           43.4616774          45.96055391          35.45621537          35.99357552           14.8602498          21.27173563          4.379941554          15.10947921          2.666977451          4.971684572          0.995217765          3.159815174         0.8313458276 
