ITEM: TIMESTEP
0
ITEM: NUMBER OF ATOMS
4
ITEM: BOX BOUNDS pp pp pp
0.0000000000000000e+00 4.2600002000000003e+00
0.0000000000000000e+00 2.4767999999999999e+00
0.0000000000000000e+00 3.0000000000000000e+01
ITEM: ATOMS id type c_1[1] c_1[2] c_1[3] c_1[4] c_1[5] c_1[6] c_1[7] c_1[8] c_1[9] c_1[10] c_1[11] c_1[12] c_1[13] c_1[14] c_1[15] c_1[16] c_1[17] c_1[18] c_1[19] c_1[20] c_1[21] c_1[22] 
1 1          13.94734711          12.58730995          8.778686792          6.104334521          1.205228901         0.3773344737      0.0002736157065      6.165225215e-08          48.55210357           43.3500113          45.96790859          35.33589745          36.04741089          14.65164689          21.31953986          4.218688927          15.11524579          2.523548647          4.857840246         0.8202442793          2.987303383         0.5681649704 
2 1          13.96002235          12.60085406          8.784098719          6.091578489          1.141053229         0.3282130507      8.803778093e-05      4.022180716e-09          48.57669123          43.31522663          46.01859595           35.2355799          36.22716378          14.50273803          21.56469863          4.148663543          15.35954255          2.484904777          5.026700629         0.8787553373          3.098412177         0.6739483961 
3 1          13.95222531          12.59278136          8.780704206           6.09812385          1.172306601         0.3463544213      9.239482983e-05      3.735943969e-09          48.55402132          43.30046804          45.98418696          35.23461458          36.13239556          14.57731424          21.51068531          4.158905713           15.3467897          2.455408862          5.068941807         0.8538577143          3.181239019         0.6838087878 
4 1          13.94817847          12.58839838          8.784492809          6.118132195          1.235780996         0.3952088701      0.0002779727551       6.13660154e-08          48.54765334           43.4108211          45.93307747          35.41082604          35.97238706           14.7672602          21.27018035           4.28465827          15.08881293          2.562722567          4.860208453         0.8914501875          3.053701663         0.6940119034 
