ITEM: TIMESTEP
0
ITEM: NUMBER OF ENTRIES
588
ITEM: BOX BOUNDS pp pp pp
0 4.26
0 2.4768
0 30
ITEM: ENTRIES c_2[1] c_2[2] c_2[3] c_2[4] c_2[5] c_2[6] c_2[7] c_2[8] c_2[9] c_2[10] c_2[11] c_2[12] c_2[13] c_2[14] c_2[15] c_2[16] c_2[17] 
                   0                   68            4.2016636                   -0                   -0                   -0                   -0                   -0                   -0      -0.002068166969       -0.00670373298      -0.001632196636     -0.0003820141629       0.005801040514      7.249702646e-05        0.03864238696     -1.253500711e-06 
                   1                    1          -3.63248378         0.8137120297         0.1388539779        0.02547174737      3.272168883e-11      3.518983774e-53     3.615938187e-106         0.8146834333         0.5582086898         0.7258461347        0.09852479457         0.4196541634        0.00252361873         0.1831120136      1.933765006e-06 
                   1                    1          15.08765262                   -0                   -0                   -0                   -0                   -0                   -0      -0.004106502397      -0.002798350376      -0.004208952286        0.00011596411      -0.003651277174     -2.256464304e-06      -0.001625221538      4.396929933e-08 
                   0                   70           2.20071977      0.0003476970052      3.507709011e-05      7.847879797e-07      2.466165557e-23      1.112172903e-96     2.306923647e-188      6.614997756e-05      4.914540008e-05      6.326101281e-05      3.157055634e-06      4.629296898e-05      3.373094829e-12       1.59586029e-05      5.764074362e-60 
                   1                    3          -4.85935735       0.001073959258      0.0001083453843      2.424036744e-06      7.617440738e-23      3.435256466e-96     7.125577649e-188      0.0002043247978      0.0001517972311      0.0001954004676      9.752486502e-06      0.0001429851352      1.039025214e-11      4.937787006e-05      1.723493871e-59 
                   1                    1          14.91844266      2.940302244e-05      2.966296667e-06      6.636565238e-08      2.085514691e-24      9.405098213e-98     1.950851654e-189      5.594981894e-06       4.15499944e-06      5.350763082e-06      2.668824564e-07      3.916748681e-06      2.844348449e-13      1.356447588e-06      4.691255685e-61 
                   0                   71            2.8340652         0.1831937211        0.02795479766       0.003528994436      1.967579033e-13      2.716898878e-61     1.231408752e-121         0.1367459281          0.110070764         0.1244112101        0.01356553598        0.07633908066      1.986747832e-07     -0.0006915916755      5.105721535e-23 
                   1                    4          -3.78325691         0.6837453944         0.1043374415        0.01317148687       7.34371841e-13      1.014045178e-60     4.596063979e-121         0.5113174228         0.4073396752         0.4650209322        0.05085728109         0.2717531249      1.153840288e-05        0.06080312485      6.691325278e-23 
                   1                    1          15.09083978     -0.0004269292067     -6.514808215e-05     -8.224249097e-06      -4.58540255e-16     -6.331677068e-64     -2.86977282e-124        -0.0025838083      -0.001575002842      -0.002627177549      4.778133453e-05      -0.002625292911     -1.654944964e-07      -0.002558106164       2.34707303e-24 
                   0                   73           4.94632901       -0.01842896332      -0.002000171893     -6.374444726e-05     -4.626871717e-20     -3.173605769e-88    -8.367389369e-174      -0.004613228539      -0.003384197667      -0.004390878623     -0.0002432578003      -0.003170136003     -4.054486989e-09      -0.001893353655      1.070757713e-36 
                   1                    2          -4.92232221          0.154512478        0.01676988067       0.000534447453      3.879270918e-19      2.660820813e-87     7.015403111e-173        0.03861234051        0.02824456529        0.03674253919       0.002044805896        0.02632658855      2.034170072e-08        0.01328898458      2.927899011e-35 
                   1                    1          15.06153184      0.0006464364934      7.016043619e-05      2.235976938e-06        1.6229772e-21      1.113212148e-89     2.935046182e-175      0.0001343811099      9.778936227e-05      0.0001275838914      7.438633851e-06      9.097981453e-05      1.272481792e-10      6.554681667e-05      1.099219637e-37 
                   0                   75            7.0940654        -0.2105568552        -0.0263896856      -0.001578301467     -1.915913143e-16     -1.277562977e-75    -4.495970771e-150       -0.08606652568       -0.06543949544       -0.08096997489      -0.005581242424       -0.05442881004     -2.936659318e-07       -0.02073635678     -4.145411033e-35 
                   1                    4          -3.78325691         0.3715807237        0.04657126202       0.002785311364      3.381112391e-16      2.254582379e-75     7.934275383e-150         0.1519574248         0.1103498677         0.1430184512        0.00978754085        0.09611217905      5.175572583e-07        0.04055599435      5.666522415e-35 
                   1                    1          15.09083978     -0.0002320142335     -2.907899946e-05     -1.739142641e-06     -2.111159567e-19     -1.407756564e-78      -4.9541451e-153     -0.0005426709658        0.00434546835     -0.0005707896642       3.04629909e-05     -0.0008185143129     -6.926490249e-09      -0.002886249311      3.208164994e-36 
                   0                   42           -0.0583366         0.7091767466         0.1220831632        0.02302895094       3.74652031e-11      1.123147344e-52     4.151769392e-105         0.7278585439         0.5749467862         0.6483059923          0.088337417          0.376546172        0.00255948659         0.1380672581      1.628564067e-05 
                   1                    1          -1.15568378         0.4123213341        0.07098017947        0.01338922606      2.178258467e-11      6.530073264e-53     2.413873696e-105         0.4200299934         0.3291101419         0.3751080314        0.04999868369         0.2324894437       0.001601756987          0.119576394      6.506106934e-07 
                   1                    1          15.08765262                   -0                   -0                   -0                   -0                   -0                   -0       -0.00475256427        0.01862557876       -0.00531549888      0.0006140428891       -0.01051258764     -2.790245421e-06       -0.06071445114      3.054786462e-07 
                   0                   45            -1.425935         0.1894749214        0.02111657255      0.0007603350935      1.509873565e-18      5.269828268e-85     1.730321437e-168         0.0516404489        0.03787869893        0.04903635554       0.002849205594        0.03514817549      5.621527028e-09         0.0176744868      4.203473432e-48 
                   1                    4          -1.30645691        0.08846743482        0.00985950537      0.0003550068517      7.049726699e-19      2.460527152e-85     8.079016359e-169        0.02409178971        0.01762098226        0.02288309629       0.001322370412        0.01645296376      3.097630551e-09        0.00798885503      4.913122946e-49 
                   1                    1          15.09083978      -0.000107308096     -1.195925654e-05     -4.306116639e-07     -8.551087195e-22     -2.984538709e-88    -9.799581783e-172      -0.000113590242      3.143358795e-05     -0.0001181117872      4.915276186e-06     -0.0001673273274      1.649212541e-11     -0.0006109954118     -1.157084681e-50 
                   0                   34            4.2016636                   -0                   -0                   -0                   -0                   -0                   -0     -0.0005634896316        -0.1007024628       -0.03271445228        0.01786085176         0.2999195138        -0.1363081613         0.4812280848      -0.002882944428 
                   1                    1          -1.15568378         0.5572350607         0.2433932895         0.3048959963       0.007813167168      8.180428237e-13      7.761829956e-26          3.234007062          3.269440177          1.985262699          1.607529314         0.5257876363         0.4266384999        0.02641735991         0.1514251506 
                   1                    1          15.08765262                   -0                   -0                   -0                   -0                   -0                   -0       -0.05877778807        -0.0367962772       -0.06501271132       0.008557721069       -0.05784191903       0.009140123705       -0.01936312515      0.0001214986994 
                   0                   35           0.68632881         0.5150572388        0.08218003878        0.01209269161      2.426507737e-12      8.405203511e-58     3.768259257e-115         0.4345770538         0.3502637657         0.3927320922        0.04600630334         0.2187558596      1.632111929e-05        0.03878252662      9.232806781e-24 
                   1                    2          -2.44552221         0.5518775608        0.08805491105        0.01295717184      2.599973499e-12      9.006073233e-58     4.037643918e-115         0.4643832393         0.3746802377         0.4199851867        0.04884609227         0.2415678027      1.384994694e-05        0.02491655541      2.092343099e-23 
                   1                    1          15.06153184       0.003827145244      0.0006106407615      8.985503687e-05       1.80302243e-14      6.245506755e-60     2.800014136e-117      0.0008663772313       0.002137211448      0.0003554111359      0.0005580312483      -0.003415537968     -1.002603827e-08      -0.006789213388      5.010314597e-25 
                   0                   36           2.20071977         0.4321092563        0.09511927646        0.03607623765      2.358230193e-08      1.609593208e-38      9.140770057e-77         0.7862208369         0.6269550102         0.6566268582         0.1477062922         0.2958434816        0.02002292264         0.1391375753       0.009469020528 
                   1                    3          -2.38255735         0.7998183698         0.1760622887        0.06677579144      4.364997512e-08      2.979297936e-38       1.69192298e-76           1.45086085          1.236866328          1.217538416         0.2718878898         0.5402998909        0.03812263735         0.1742755545        0.03457265732 
                   1                    1          14.91844266        0.03654135058       0.008043768508       0.003050789651      1.994239072e-09      1.361153663e-39      7.729898823e-78        0.07138915623       -0.03626131545         0.0658173678       0.009209078001        0.04751882373       0.002207046761         0.1187083211       0.008735839707 
                   0                   37            2.8340652         0.3273023949         0.1154760796         0.1107046769      0.0002578808145      6.980898119e-19      1.225630164e-37          1.465567434          1.375316716         0.9638558529         0.5419441721         0.2833681712         0.1498805116       0.001626699217       -0.08110828258 
                   1                    4          -1.30645691         0.6288476049         0.2218647258         0.2126974076      0.0004954676014      1.341243184e-18      2.354808902e-37          2.679825377            2.5577583           1.87710906          1.025209186         0.5257046107         0.3198776348        0.07463802476         0.2903908159 
                   1                    1          15.09083978     -0.0007627715132     -0.0002691146333     -0.0002579949771      -6.00985945e-07     -1.626883978e-21     -2.856305941e-40       -0.06181427341         0.1039240533       -0.05020752367       0.003989072394       -0.07073823541       0.005132994179        -0.1496174683        0.04503818558 
                   0                   38            8.4616638        -0.7091767466        -0.1220831632       -0.02302895094      -3.74652031e-11     -1.123147344e-52    -4.151769392e-105        -0.7213520854        -0.5748489012        -0.6407266853       -0.08966349118        -0.3716283269      -0.002571188075        -0.1446905885     -1.019516823e-07 
                   1                    1          -1.15568378         0.4123213341        0.07098017947        0.01338922606      2.178258467e-11      6.530073264e-53     2.413873696e-105         0.4218598186          0.330725915         0.3741718639        0.05289571676         0.2101549791       0.001456518717        0.07179763424      3.586390836e-07 
                   1                    1          15.08765262                   -0                   -0                   -0                   -0                   -0                   -0      -0.004739274891        0.01852393742      -0.005322998262      0.0006369612019       -0.01022424158     -9.033256469e-07       -0.05429109097     -1.008682746e-09 
                   0                   39           4.94632901        -0.1726983235       -0.04343180891       -0.02255301586     -2.295821318e-07     -2.638067695e-32     -5.072072682e-64         -0.416129594         -0.336383001          -0.33319595        -0.0948751675        -0.1259005978       -0.01700552623        -0.3052534955       -0.00104175931 
                   1                    2          -2.44552221         0.8735361323         0.2196851342         0.1140768124      1.161263661e-06       1.33437743e-31      2.565536632e-63          2.085515528          1.800462084          1.649440912         0.4963448817         0.8137868385        0.03887604938         0.1048858805       0.002710626074 
                   1                    1          15.06153184       0.006057774208       0.001523466392       0.000791096723      8.053099119e-09      9.253603695e-34      1.779141248e-65     -0.0001331009826      0.0003541356739      -0.002599746828       0.002879610199       -0.00374025375      0.0007097159123       0.009458075016      3.643781229e-05 
                   0                   40           6.46071997        -0.4716961656       -0.09927241354       -0.03353002692     -8.016015943e-09         -6.71054e-41     -1.560264732e-81        -0.7766583058        -0.5553926476        -0.6517702021        -0.1402410278        -0.3609165729       -0.00278817821        -0.1700832655       -2.4115128e-15 
                   1                    3          -2.38255735         0.7733355594         0.1627549534        0.05497174668      1.314208303e-08      1.100178374e-40      2.558019944e-81          1.271788677          1.070196595          1.066513628         0.2305962056         0.5874437819       0.004517313254         0.2251276168     -6.840841579e-16 
                   1                    1          14.91844266        0.03533142881       0.007435795471       0.002511497539       6.00423148e-10      5.026391639e-42       1.16868413e-82        0.06412159729       -0.02925239343        0.05697060133       0.008108741463        0.04555110472      0.0002793203335        0.06917797372      1.675860888e-16 
                   0                   41            7.0940654        -0.6639613711        -0.1629170204        -0.0800857792     -5.039298637e-07     -7.016824903e-33     -9.656531179e-66         -1.505577522         -1.298042583         -1.196060899        -0.3515627716        -0.6104865988       -0.01862612747       -0.02401651822      -0.002097701841 
                   1                    4          -1.30645691          0.603168985         0.1480003177        0.07275311526      4.577899825e-07      6.374363539e-33      8.772377979e-66          1.366875119          1.175309694          1.086394446         0.3190745714         0.5129480859          0.026205107         0.1450621886       0.002852065631 
                   1                    1          15.09083978     -0.0007316241898     -0.0001795195297     -8.824714189e-05     -5.552842294e-10     -7.731893839e-36     -1.064060668e-68       -0.02055754602      -0.002788052144       -0.02233560935       0.001942503675       -0.04489068147     -0.0001127596903        -0.0726427652      0.0002760515539 
                   0                   46           9.20632921        -0.1377821649       -0.01507812251     -0.0004993378413     -4.983276458e-19      -1.17327651e-86    -1.400364006e-171       -0.03576997128       -0.02647105654       -0.03403671413      -0.001895072444       -0.02427096823      -4.64917919e-09       -0.01049408042     -5.358098106e-44 
                   1                    2          -2.44552221         0.1036983563        0.01134817791      0.0003758143399      3.750540411e-19      8.830376964e-87     1.053949512e-171        0.02694778975        0.01996901666        0.02564102118       0.001428939157        0.01831363899      2.813415025e-09        0.00825416838      2.578791496e-44 
                   1                    1          15.06153184      0.0007191244927      7.869703025e-05      2.606186889e-06       2.60091439e-21      6.123665392e-89     7.308899927e-174      0.0001457267027      0.0001389900883      0.0001330607035      1.382069257e-05      4.609761765e-05      5.729747581e-11     -0.0001588727936      2.639479579e-46 
                   0                    8           -0.0583366         0.9092325462         0.1968793749        0.07160755061      3.252824998e-08      4.514180833e-39      3.503902196e-78          1.604037653          1.326606465          1.340117031         0.2972016566         0.7276010711       0.009117951646          0.232497932      2.071994966e-13 
                   1                    1           1.32111622                   -0                   -0                   -0                   -0                   -0                   -0      8.447459868e-05        0.05298966008      -0.001309130361       0.001431324044        -0.0277908746     -0.0004312840766        -0.1947488715     -8.633006622e-13 
                   1                    1          15.08765262                   -0                   -0                   -0                   -0                   -0                   -0       -0.01262059821      -0.008253047793       -0.01447488347       0.002039704429       -0.02139857113      7.631184138e-05       0.002905276488      2.415235864e-14 
                   0                   10          -2.05928043         0.0860526648       0.009039396597      0.0002467406853      4.819464961e-20      2.270161431e-90     1.437791664e-178        0.01871480114        0.01393125454        0.01786244057      0.0009316909277        0.01295198744      3.334724421e-09       0.004737395275      4.445157354e-45 
                   1                    3           0.09424265        0.01686259126       0.001771329806      4.835047622e-05      9.444061717e-21      4.448532116e-91     2.817448269e-179       0.003664845802       0.002725872552       0.003497652827      0.0001827454008       0.002522565894      4.346833529e-10      0.0009244135176      2.689664021e-45 
                   1                    1          14.91844266       0.002325682501      0.0002443011676       6.66848023e-06      1.302521584e-21       6.13539944e-92     3.885814485e-180       0.000510386764      0.0003699317803      0.0004878328096      2.465807146e-05      0.0003607579452      8.970084263e-11      0.0001792576222      1.201360159e-46 
                   0                   11            -1.425935         0.5553795739        0.07543123832       0.006209277085       1.01487599e-14      3.865787734e-69     1.148592032e-137         0.2900303932         0.2179288627         0.2707419544        0.02116062192         0.1773947422      8.435504159e-06        0.06954289799      7.497120737e-18 
                   1                    4           1.17034309        0.01487958233       0.002020933743      0.0001663573058      2.719028852e-16      1.035711603e-70     3.077277328e-139       0.007686015848       0.001993451218       0.007135465139      0.0006006711153       0.003303703261     -6.443682366e-07      -0.004048234961     -2.550075052e-19 
                   1                    1          15.09083978     -0.0003145362149     -4.272007345e-05     -3.516590461e-06     -5.747695228e-18     -2.189367954e-72    -6.504988792e-141      -0.001260076258     -0.0007350234818      -0.001337952204      8.530743403e-05      -0.001559340625     -2.435188128e-08     -6.932891061e-05     -1.319043118e-20 
                   0                    1           0.68632881         0.8253626448         0.2148970264         0.1202511587      2.361862436e-06      4.857377782e-30      3.432753202e-60          2.121903044          1.820382999          1.670561763         0.5160006618         0.8307344664        0.05501981802           0.24779896       0.003116759919 
                   1                    2           0.03127779         0.3028401337        0.07884951497        0.04412227428      8.666090482e-07       1.78225771e-30      1.259537787e-60          0.777519492         0.6718902601         0.6095006437          0.190930745         0.3453304634        0.00617242845       -0.01511574321      0.0007192018546 
                   1                    1          15.06153184       0.006132877052       0.001596797541      0.0008935291372      1.754987584e-08      3.609286284e-32      2.550715552e-62      -0.001196626907        0.01528361791      -0.006471384305       0.005998056909       -0.02890787888      0.0008721299098       -0.09875225973      0.0002068815625 
                   0                    2           2.20071977          0.438835358         0.2033197724         0.2705017411          0.011917004      1.359408344e-11      2.551250615e-23          2.842284443          2.905161187          1.656935045          1.435593997         0.2179026822         0.4981223098        -0.3205075413        0.06110036582 
                   1                    3           0.09424265         0.2690707726         0.1246649962         0.1658574478       0.007306880393      8.335177348e-12      1.564292762e-23          1.766483291          1.600308554          1.020829102         0.8714488294         0.6505815591        0.08721414664         0.5188093196        0.07006200742 
                   1                    1          14.91844266        0.03711014386        0.01719375129        0.02287499934       0.001007762307      1.149584652e-12      2.157466931e-24         0.2437438937          0.150498707         0.2183625489        0.07332767816          0.306297786        0.09579208582         0.3256205782         0.1622582182 
                   0                    3            2.8340652         0.2039342554         0.1694201697         0.3248882967         0.3903796654      0.0009583512851      1.476383863e-07          2.644040898          2.962056367         0.8284456976          2.206358038       -0.02453622429         0.7112439489        -0.0391658988        0.08094565091 
                   1                    4           1.17034309        0.02248306667        0.01867800465        0.03581784345        0.04303804687      0.0001056550102      1.627663619e-08         0.2458196304          0.348007336        0.08694260368           0.24816795         -0.268565678        -0.1338448831        -0.2054613528         0.5936516599 
                   1                    1          15.09083978     -0.0004752645964      -0.000394830228     -0.0007571455068     -0.0009097717972     -2.233417999e-06     -3.440682289e-10           -0.1199164        -0.0231966904        -0.1538185749          0.051877815        -0.3268484694        0.08275685749       -0.06520363152     -0.0007190076804 
                   0                    4            8.4616638        -0.9092325462        -0.1968793749       -0.07160755061     -3.252824998e-08     -4.514180833e-39     -3.503902196e-78         -1.577973615         -1.321645106         -1.320060192        -0.2982326368        -0.5988167498       -0.04250437751        -0.2227933748       -0.02976860128 
                   1                    1           1.32111622                   -0                   -0                   -0                   -0                   -0                   -0      -0.002212029617        0.08340457276      0.0006623729191     -0.0004721360798      -0.005266410559      0.0007805400857         -0.119453748        0.01118220183 
                   1                    1          15.08765262                   -0                   -0                   -0                   -0                   -0                   -0       -0.01252453873      -0.008756494656       -0.01454861061       0.002153779962       -0.02151673079     -6.816847371e-05       0.001237274664     -0.0002363246288 
                   0                    5           4.94632901         -0.118654346       -0.09066650328        -0.1682978886        -0.1505020064     -0.0001003305899     -3.030907916e-09         -1.651781447         -1.760030786        -0.5331815022         -1.084114906       -0.06011665052        -0.3552234537         0.1926048963       -0.08603385503 
                   1                    2           0.03127779         0.2055217462         0.1570438732         0.2915095578         0.2606852273      0.0001737830827      5.249849738e-09          2.242214262          2.584441347         0.7874862611          1.983833817       -0.04899950366         0.6030705223         0.0485618267         0.2681668744 
                   1                    1          15.06153184       0.004162062621       0.003180327371       0.005903419257        0.00527918948      3.519316501e-06      1.063157732e-10        -0.6364757893         0.2044371757       -0.06709852883        0.05498726827       -0.03704295029        0.09590982729        -0.1109447542         0.1505023278 
                   0                    6           6.46071997        -0.5172376002        -0.2157793536        -0.2569222234      -0.004171339247     -5.844954822e-14     -4.492094531e-28         -2.891230727         -2.791908923         -1.744224757         -1.362060301        -0.5836069486        -0.2723742532        -0.1381627262         -0.098560009 
                   1                    3           0.09424265         0.2809071741         0.1171878619         0.1395321913       0.002265417517      3.174343361e-14       2.43961688e-28          1.564629106          1.597459559         0.9407708472         0.7470939685        0.03063460674         0.2846986845        -0.2412204845       -0.01146272901 
                   1                    1          14.91844266        0.03874261608        0.01616250762        0.01924422946      0.0003124455664      4.378042907e-15      3.364710797e-29         0.2231160779         0.1503926257         0.1908281622        0.06836476347         0.2148892424        0.05789584256          0.209357199         0.1370856004 
                   0                    7            7.0940654        -0.6887936544        -0.2498009381         -0.249056864     -0.0008237519569     -1.043798654e-17     -1.261041027e-35          -3.09092102         -2.966087948         -2.045791308         -1.262025209        -0.5486637477        -0.3845161508       -0.05300408827        -0.1310763246 
                   1                    4           1.17034309        0.03590496148        0.01302145135        0.01298266477      4.293997497e-05      5.441041771e-19      6.573467862e-37         0.1171458298        0.05183680864           0.10920504        0.06257464714       -0.01771488592        0.06273909904         0.1204092363         0.3050909952 
                   1                    1          15.09083978     -0.0007589870756     -0.0002752575931     -0.0002744376922     -9.076986769e-07     -1.150169841e-20     -1.389550899e-38       -0.04929833555       -0.02283447937        -0.0574327864       0.008438579643       -0.09678841051       0.003621102085       -0.01162325535      -0.006349053962 
                   0                   12           9.20632921        -0.7258063722        -0.1151819432       -0.01664189127     -2.865104993e-12     -5.120268151e-58    -1.004763608e-115        -0.6006896995        -0.4810805518         -0.542495581       -0.06404959372        -0.3137925175     -0.0002183716156       -0.06565880908     -1.013838144e-05 
                   1                    2           0.03127779         0.1870600405        0.02968551915       0.004289067959      7.384154735e-13      1.319632349e-58     2.589549065e-116         0.1555217846         0.1228004582         0.1401087076        0.01694718722         0.0768981162       4.53618847e-05        0.03967859195      2.316045537e-06 
                   1                    1          15.06153184        0.00378819087      0.0006011674771       8.68587863e-05      1.495380172e-14       2.67241427e-60     5.244148403e-118      0.0006684125941       0.001577234988      0.0001002912256      0.0006242640057      -0.002408474076      1.041748692e-06      -0.004820133536      5.058434424e-08 
                   0                   25           -0.0583366         0.7091767466         0.1220831632        0.02302895094       3.74652031e-11      1.123147344e-52     4.151769392e-105         0.7278361176         0.5772543015         0.6457575614        0.09090759684          0.358969052       0.001734289336         0.1371610611        4.5647239e-06 
                   1                    1           3.79791622        -0.4123213341       -0.07098017947       -0.01338922606     -2.178258467e-11     -6.530073264e-53    -2.413873696e-105        -0.4195160735        -0.3365051801        -0.3735482063       -0.05101655758         -0.210529327      -0.001154868239       -0.09976173938     -4.890370514e-07 