ITEM: TIMESTEP
0
ITEM: NUMBER OF ENTRIES
588
ITEM: BOX BOUNDS pp pp pp
0 4.26
0 2.4768
0 30
ITEM: ENTRIES c_2[1] c_2[2] c_2[3] c_2[4] c_2[5] c_2[6] c_2[7] c_2[8] c_2[9] c_2[10] c_2[11] c_2[12] c_2[13] c_2[14] c_2[15] c_2[16] c_2[17] 
                   0                   68            4.2485028                   -0                   -0                   -0                   -0                   -0                   -0      0.0002972593571      -0.007430624725       0.002323227131      -0.002134420905        0.01430919363      0.0001047662132        0.04415150391      -2.69492147e-06 
                   1                    1          -3.65667667         0.8137120297         0.1388539779        0.02547174737      3.272168883e-11      3.518983774e-53     3.615938187e-106         0.8131171663         0.5564412007         0.7253935123        0.09734531028         0.4175039025       0.002511010693         0.1865598816       5.15944515e-06 
                   1                    1           15.0587472                   -0                   -0                   -0                   -0                   -0                   -0      -0.002525302528      -0.001068039327      -0.002734587072       0.000226787844      -0.003984809493     -6.630432556e-06      -0.004193766551      2.239549768e-07 
                   0                   70           2.03809771         0.4479502954        0.09104828331        0.02800968765      2.986242953e-09      7.327663272e-43      2.071906204e-85         0.6770813452         0.7063090644         0.5768192198         0.1153469698         0.2616895205        0.01160752562        0.08104592994        0.01098467901 
                   1                    3          -2.55592895         0.7808009151         0.1587019445        0.04882235813      5.205178463e-09      1.277250232e-42       3.61144144e-85          1.182029006         0.8726162286          1.007215619         0.2008031999         0.4683773498        0.02019907088         0.1992541537        0.01881807013 
                   1                    1          15.03333621       0.005149671672       0.001046698194      0.0003220015625      3.433008282e-11      8.423939077e-45      2.381879596e-87       0.002224054795        0.05868811964       0.003302815547       0.001337531775      0.0005924367784      0.0002221357491      -0.007873162838       0.002681055501 
                   0                   71           2.76161532         0.2109423204        0.03309810385       0.004600996935      5.733714241e-13      2.538280277e-59     8.724108036e-118          0.169414583         0.1376778773         0.1533980469        0.01761407936        0.08930193207      4.092979173e-06      -0.005074262807       4.56381927e-26 
                   1                    4          -3.68782368         0.7071779909           0.11096043        0.01542470834      1.922211015e-12      8.509510769e-59     2.924731833e-117         0.5673206118         0.4576454111         0.5111021104        0.06182014071         0.2849770563      1.763549598e-05         0.0511420298      7.024888678e-27 
                   1                    1          15.02921883       0.004189142063      0.0006573012887      9.137203837e-05      1.138668782e-14      5.040817157e-61     1.732536547e-119       0.002543131984       0.002104163321       0.002188076684      0.0003915250896       0.001115784438      1.055746234e-07      0.0001511382618      5.892809375e-28 
                   0                   73           4.94957438       -0.02126307906      -0.002346332204     -8.073769177e-05     -1.105139617e-19     -8.929346305e-87    -4.843071726e-171      -0.005674932774      -0.004180687813       -0.00537957832     -0.0003231057467      -0.003796002665      5.193282827e-11      -0.002421022136      2.032279303e-57 
                   1                    2          -4.90293652         0.1880380177        0.02074956572      0.0007139960995       9.77319711e-19      7.896582492e-86     4.282924426e-170        0.05041167271         0.0368188036        0.04792447649       0.002719651906        0.03421002835      3.956811164e-09        0.01763823536      1.449421848e-57 
                   1                    1          15.00048633       0.001767017121       0.000194986303      6.709511979e-06      9.183997382e-21      7.420518805e-88     4.024718449e-172      0.0004714375066      0.0003452396296      0.0004479742908      2.565909502e-05      0.0003207471509      4.046869354e-11      0.0002059991081      1.063205962e-59 
                   0                   74           6.29809791        -0.4252103592       -0.08878847746       -0.02937133361     -5.864270312e-09     -2.233190617e-41     -1.940929837e-82        -0.6911323576        -0.6028879878         -0.585870341        -0.1184305619        -0.3373030176      -0.003591718489        -0.1013107451     -8.304119231e-13 
                   1                    3          -2.55592895         0.7993152862         0.1669055933        0.05521256813      1.102372226e-08       4.19797721e-41      3.648582059e-82           1.30294246          1.018414209          1.105676085         0.2218547941         0.6441037826       0.005779318945         0.2582087322     -2.395931751e-13 
                   1                    1          15.03333621       0.005271780818       0.001100804301      0.0003641473679      7.270553757e-11      2.768721693e-43      2.406375212e-84       0.004735533842        0.07599570906       0.003133512714       0.001796743158      -0.006337116271      0.0001407639364       -0.07186250785       4.56213026e-14 
                   0                   75           7.02161552        -0.2514289416        -0.0332977934      -0.002484876558     -1.822591446e-15     -2.328611887e-71     -1.00467082e-141        -0.1238682147       -0.08549477547        -0.1164774547      -0.008104334016       -0.07951325084     -9.945552918e-07       -0.03250945922     -5.996783872e-34 
                   1                    4          -3.68782368         0.4519504944        0.05985370696       0.004466634516      3.276158663e-15      4.185744436e-71     1.805923658e-141         0.2227374963          0.166238543         0.2093726446        0.01465623348         0.1429924658      1.766531649e-06        0.05579143174     -2.081398927e-35 
                   1                    1          15.02921883       0.002677239465      0.0003545580952      2.645920372e-05      1.940712839e-17      2.479528253e-73     1.069783117e-143       0.001079203784       0.005142059387      0.0009692617032      0.0001201968535      0.0002492658793      9.511457309e-09      -0.002949240221      7.465200703e-36 
                   0                   42           -0.0114974         0.7091767466         0.1220831632        0.02302895094       3.74652031e-11      1.123147344e-52     4.151769392e-105         0.7253202113         0.5459577858         0.6449928937         0.0891395219         0.3674638051       0.002395185249         0.1512304256      5.609444794e-06 
                   1                    1          -1.17987667         0.4123213341        0.07098017947        0.01338922606      2.178258467e-11      6.530073264e-53     2.413873696e-105         0.4221576245         0.3614178154         0.3776552807        0.04950080012         0.2256027201       0.001489215959         0.1070620981     -5.658932344e-08 
                   1                    1           15.0587472                   -0                   -0                   -0                   -0                   -0                   -0      -0.002660824831        0.01333520239      -0.002840466322      0.0001943593323      -0.004553056536     -5.336614551e-06       -0.01336989119        2.3490139e-07 
                   0                   45          -1.49838488         0.1538279376        0.01679596468      0.0005504150209      5.035705915e-19       8.45879678e-87     6.674462133e-172        0.04006950933        0.02943696562        0.03813040215       0.002120127476        0.02726547818      3.886808316e-09         0.0132561604       3.86026245e-57 
                   1                    4          -1.21102368        0.06713065186       0.007329774261      0.0002402016157      2.197586641e-19      3.691426608e-87     2.912741345e-172         0.0175032288        0.01281981903        0.01666148215      0.0009201593408        0.01189496027      2.186019088e-09       0.005365185524      8.539340217e-56 
                   1                    1          15.02921883      0.0007903909925      8.630018319e-05       2.82811485e-06      2.587421153e-21       4.34625653e-89     3.429438653e-174      0.0001915181629      0.0001674903429      0.0001804496838       1.20994538e-05      0.0001166082979      2.014291601e-11     -1.255089916e-05      1.983460688e-59 
                   0                   34            4.2485028                   -0                   -0                   -0                   -0                   -0                   -0        0.02959758068        -0.1256512518        0.03453797159       -0.02815899565         0.4355520197        -0.1577629713         0.5540763632      -0.005407744264 
                   1                    1          -1.17987667         0.5572350607         0.2433932895         0.3048959963       0.007813167168      8.180428237e-13      7.761829956e-26          3.229591669          3.264305983          1.981370882          1.607600618         0.5371215678         0.4278755313        0.03081152637         0.1515094328 
                   1                    1           15.0587472                   -0                   -0                   -0                   -0                   -0                   -0        -0.0371315113       -0.01092071308       -0.04372944462       0.009975522827       -0.07548969604        0.01513276104       -0.05019561354      0.0004820456522 
                   0                   35           0.68957418         0.5219347382        0.08331910193        0.01228103907      2.499460182e-12      9.204514742e-58     4.454384597e-115         0.4385500373         0.3528036144           0.39368519        0.04935660844         0.2185530603      1.628726674e-05        0.05457336841     -2.470172405e-26 
                   1                    2          -2.42613652         0.5460054066        0.08716162538        0.01284741796       2.61473068e-12      9.629010001e-58     4.659812607e-115         0.4599444506             0.370289         0.4143761406        0.05013828004         0.2380466223      1.595755085e-05        0.03676606633      5.627780703e-26 
                   1                    1          15.00048633       0.008544248896       0.001363961991      0.0002010447797      4.091701191e-14      1.506810319e-59     7.291978842e-117       0.007075393082       0.005519884317       0.006418957504      0.0007237318946       0.004084797233      2.887881063e-07       0.001563591773       9.71129308e-28 
                   0                   36           2.03809771         0.5083311732         0.2094263594         0.2457818199       0.003504941891      2.772826962e-14      1.043140771e-28          2.786155767          2.800114088          1.699822775          1.294582171         0.3050683547         0.4183928648          -0.20329554        0.07275778859 
                   1                    3          -0.07912895         0.3164534289         0.1303750252         0.1530075348       0.002181945428      1.726179007e-14      6.493905766e-29          1.701632744           1.54123091          1.072846733          0.788699511         0.5773592938         0.1165309332         0.3875617644         0.1496201105 
                   1                    1          15.03333621       0.005843814972       0.002407581826       0.002825527048      4.029308643e-05      3.187663588e-16      1.199202798e-30      -0.004279756347      -0.009645292187      0.0002097694755        0.01496172867      -0.007788997832        0.02204370993       0.004404287704          0.032751939 
                   0                   37           2.76161532         0.3546435216         0.1275717089         0.1257424616      0.0003753820026      3.029158842e-18      2.082289968e-36          1.536454436          1.282564259          1.061581243         0.6249493202         0.2514353751         0.1934673356        0.03966968546         0.1710121178 
                   1                    4          -1.21102368         0.5981805426         0.2151763938         0.2120909852      0.0006331603324      5.109310531e-18      3.512217952e-36          2.653525727          2.672946361           1.78339012          1.057962638          0.478289036         0.3308511537        0.03155698876         0.1863378361 
                   1                    1          15.02921883        0.00704293046       0.002533469864       0.002497142508      7.454779742e-06      6.015661862e-20      4.135257674e-38       -0.08574665034       -0.06605995079       0.007452379713        0.01198473352       0.007093413239        0.01883104579        0.01417149006         0.1569342764 
                   0                   38             8.508503        -0.7091767466        -0.1220831632       -0.02302895094      -3.74652031e-11     -1.123147344e-52    -4.151769392e-105        -0.7291142309        -0.5608950873        -0.6504290519       -0.08726366255         -0.377051287      -0.001868244611         -0.194422325     -1.324850787e-06 
                   1                    1          -1.17987667         0.4123213341        0.07098017947        0.01338922606      2.178258467e-11      6.530073264e-53     2.413873696e-105         0.4235672937         0.3624996691         0.3755451109        0.05312195779          0.200627945      0.0009515771577       0.003633625438      2.056856296e-06 
                   1                    1           15.0587472                   -0                   -0                   -0                   -0                   -0                   -0       -0.00271463886       0.002582845539      -0.002984716207      0.0002952174342      -0.004736475519      -2.46439125e-06       -0.01082794982      4.241736819e-08 
                   0                   39           4.94957438        -0.1637063722       -0.04193734768       -0.02266855795     -3.283228247e-07     -1.773135523e-31     -2.357222826e-62        -0.4002309705         -0.329224535         -0.308914786        -0.1047374169       -0.07704051099       -0.01917795458        -0.3122751428       -0.00158419807 
                   1                    2          -2.42613652         0.8693671786         0.2227094348         0.1203819986      1.743567363e-06      9.416284815e-31      1.251809645e-61          2.160084924          1.863795068          1.703449746         0.5212609237         0.8583354112        0.04484158003         0.1258839873       0.003685559635 
                   1                    1          15.00048633        0.01360442491       0.003485102564       0.001883816069      2.728447986e-08      1.473521693e-32      1.958913419e-63         0.0324998444         0.0244381563        0.02655152625       0.006976969252        0.01487018858       0.001721544715        0.03167445258      0.0001316509804 
                   0                   40           6.29809791        -0.4604196884        -0.2018607424        -0.2538797119      -0.006743572319     -8.270536091e-13     -9.562427368e-26           -2.7892049         -2.634159447         -1.668603492         -1.313804261        -0.7261494148         -0.247311311        -0.3666982808      -0.002513544291 
                   1                    3          -0.07912895          0.309115473         0.1355247841         0.1704491559       0.004527483511      5.552652809e-13      6.419999696e-26          1.838109772          1.926628009          1.123267033         0.8888465994       -0.04471129817         0.3295223177        -0.4605951782         0.1771382545 
                   1                    1          15.03333621       0.005708307968       0.002502680301       0.003147614272      8.360717096e-05      1.025385496e-14      1.185554869e-27       0.007237816592        0.01251547228      -0.004403558021        0.02030682525       -0.03109320704        0.01526786686        0.02589703388        0.02487450457 
                   0                   41           7.02161552        -0.6515160113        -0.1699756091       -0.09552005593     -1.947771808e-06     -4.722268437e-30     -4.099080329e-60         -1.682615473         -1.470419431         -1.324227227        -0.4087577692        -0.7108601124        -0.0289313656        0.06314532147     -0.0008798800293 
                   1                    4          -1.21102368         0.5892178925         0.1537225002        0.08638640504      1.761525396e-06      4.270723985e-30      3.707125275e-60          1.520915672          1.280039258          1.192331658         0.3748059318         0.5247161694        0.03829117545         0.4272676856       0.002085065036 
                   1                    1          15.02921883       0.006937404925       0.001809916575        0.00101710671      2.074006087e-08      5.028316687e-32      4.364740017e-62        0.01076943116         0.0143574185       0.006356577948       0.005091662333      -0.009742053849      0.0008426312752       -0.01580772909       7.96153682e-05 
                   0                   46           9.20957458        -0.1715260568       -0.01916772185      -0.000698656071     -1.533381089e-18      -7.94728557e-85    -4.247837751e-168       -0.04798815305       -0.03481511838       -0.04553897518      -0.002678909873       -0.03232395352     -5.450547839e-09       -0.01805630911     -1.692534648e-56 
                   1                    2          -2.42613652          0.128722543        0.01438450778      0.0005243097625      1.150733112e-18      5.964078153e-85      3.18780999e-168        0.03594594929         0.0258023194        0.03409116484       0.002028926316         0.0241065641       3.02240891e-09        0.01370031793     -7.541257118e-57 
                   1                    1          15.00048633        0.00201433435      0.0002250981643        8.2047413e-06      1.800742264e-20      9.332978678e-87     4.988493092e-170      0.0005596409859      0.0004017938565      0.0005301772873      3.222860571e-05      0.0003727851383      6.520420242e-11      0.0002527717977      8.539988596e-59 
                   0                   47          10.55809811       -0.03098477637      -0.003170355669     -7.611272542e-05     -4.710482012e-21     -3.104176859e-93    -1.342344003e-183      -0.006105173705      -0.004566479685      -0.005819943958     -0.0003116864253      -0.004126720078     -1.017848698e-09      -0.001222933746     -5.988889673e-47 
                   1                    3          -0.07912895       0.006757433729       0.000691419169      1.659933549e-05      1.027303526e-21      6.769863096e-94     2.927502376e-184       0.001331487264      0.0009976397354       0.001269167978      6.809864073e-05      0.0008998179984      1.941906953e-10      0.0002865563422       2.39219831e-47 
                   1                    1          15.03333621       0.000124786742      1.276815267e-05      3.065330833e-07      1.897079059e-23        1.2501627e-95     5.406097913e-186      2.416545484e-05      1.904372043e-05      2.301353052e-05      1.258741164e-06       1.61583597e-05      4.476905743e-12      4.022774797e-06      2.413143032e-49 
                   0                    8           -0.0114974         0.9092325462         0.1968793749        0.07160755061      3.252824998e-08      4.514180833e-39      3.503902196e-78          1.595451556          1.279473705           1.33629019         0.2922652021         0.7591935001       0.009766874605         0.3026723372      5.064590192e-06 
                   1                    1           1.29692333                   -0                   -0                   -0                   -0                   -0                   -0      0.0002460996315         0.1134554845      0.0002030918453      6.758339044e-05       0.007127417242      3.448619438e-05       -0.04715587455      -5.22937498e-07 
                   1                    1           15.0587472                   -0                   -0                   -0                   -0                   -0                   -0      -0.007139438442         0.1067105653      -0.007710160755      0.0006386520795       -0.01474454143      0.0001566052351       -0.05386490589       1.17315114e-08 
                   0                   11          -1.49838488         0.4943269844        0.06452492029       0.004547627089        2.0935295e-15      3.744427007e-72     1.393836303e-143         0.2342640516         0.1682484703          0.220438071        0.01514890144         0.1495478189      1.439528519e-06        0.06216694861      1.281349513e-33 
                   1                    4           1.26577632       0.002679155812      0.0003497124791      2.464725157e-05      1.134652144e-17      2.029406383e-74     7.554320822e-146       0.001276285573       -0.00499568572        0.00121338702      6.922299042e-05       0.001200264096      2.001090381e-08     -0.0004763771605     -6.608584478e-34 
                   1                    1          15.02921883       0.002539926115      0.0003315387087      2.336638939e-05      1.075686826e-17      1.923942702e-74     7.161739773e-146      0.0009862090954      -0.004753433262      0.0008957365831       9.90270344e-05      0.0003829594297      7.488641808e-09      -0.000544774246      6.583765793e-36 
                   0                    1           0.68957418         0.8329017926         0.2147497826          0.117697532      1.925393675e-06       1.77439696e-30      4.599401721e-61          2.083665021          1.803591465          1.631423055          0.518750173         0.7775920368        0.05673815862         0.2041542771       0.009829923256 
                   1                    2           0.05066348         0.2916641984        0.07520073045        0.04121513079      6.742312332e-07      6.213554487e-31      1.610611032e-61         0.7346160972         0.6440721027         0.5797473037         0.1768349447         0.3435322327       0.008367009184        -0.1555300178      0.0002738196925 
                   1                    1          15.00048633        0.01363488517       0.003515526863       0.001926748565      3.151934825e-08      2.904748077e-32      7.529376798e-63        0.03294359617        0.02608466963        0.02737819912       0.006681040268        0.01855917522       0.001872002504         0.0146253485      0.0006481465102 
                   0                    2           2.03809771         0.4966051296          0.217659717         0.2736622923       0.007248108655      8.777060876e-13      9.988179333e-26          2.955961695          2.979880969          1.739965394          1.473419181         0.3094032438         0.4321023946        -0.2044848404         0.1552942433 
                   1                    3           2.39767105        -0.2473017126        -0.1083911896        -0.1362796103      -0.003609446573     -4.370841251e-13     -4.973959605e-26         -1.512262822         -1.337250664        -0.8791909754        -0.7180363598        -0.6206868339       -0.06037092289        -0.5234660484        0.08635422157 
                   1                    1          15.03333621       0.005709011457       0.002502233151       0.003146043141      8.332482466e-05      1.009017791e-14      1.148248917e-27       0.006525010053        0.01402043942      -0.001174296857        0.01719873008      -0.009296136523        0.02290774705      -0.009353095144        0.02482984873 
                   0                    3           2.76161532         0.2366466465         0.1810954603         0.3363637256         0.3024964034      0.0002067337796      6.442407175e-09          2.775280486          3.132826987         0.9138310459          2.287936344         -0.014551505         0.6821151055       -0.06258847162         0.2445521675 
                   1                    4           1.26577632       0.004957224784       0.003793550077       0.007046077438       0.006336631809      4.330616262e-06       1.34954207e-10        -0.1328311155        -0.2643822029        0.02194911746        0.04559724218         0.1245498102       -0.08018841278          0.052669316         0.2077016379 
                   1                    1          15.02921883        0.00469960897       0.003596407819       0.006679908654       0.006007331317      4.105563882e-06      1.279409406e-10        -0.1914947143        -0.2688690243       -0.01458895885        0.04847372874        0.05821582814        0.08811701357         0.1535439479         0.2189512617 
                   0                    4             8.508503        -0.9092325462        -0.1968793749       -0.07160755061     -3.252824998e-08     -4.514180833e-39     -3.503902196e-78         -1.594936898         -1.311724157         -1.342222929        -0.2936254779         -0.596084749       -0.03308514139        -0.2479847524       -0.03176647754 
                   1                    1           1.29692333                   -0                   -0                   -0                   -0                   -0                   -0      -0.004070993076         0.1712654619      0.0006376375229     -0.0005041213718        0.01275974392      9.341883516e-05       -0.02607267415       0.002020673361 
                   1                    1           15.0587472                   -0                   -0                   -0                   -0                   -0                   -0       -0.01127008729         0.1609742789      -0.008148408802       0.000985995066       -0.00956360819      8.066902328e-05       -0.02983116249       0.001915663515 
                   0                    5           4.94957438        -0.1080630722       -0.08613810448        -0.1626449971        -0.1698123677     -0.0002242316249     -1.591490308e-08         -1.411380138         -1.390248892        -0.3769392185         -1.143544932        0.07072568053        -0.3556655456       -0.03629468544        0.08697194629 
                   1                    2           0.05066348         0.1920983134          0.153123396         0.2891258688         0.3018669447      0.0003986053339      2.829112646e-08          2.325026223          2.729162274         0.7989568674          1.931382061      -0.006007076153         0.5408694623        -0.1028577655         0.3029188555 
                   1                    1          15.00048633       0.008980322094       0.007158300308        0.01351622188          0.014111849      1.863423069e-05        1.3225698e-09       -0.09223420794        -0.1639323535        0.05294021869         0.0671370544         0.2378305286         0.1295743036         0.2854311466         0.3532819422 
                   0                    6           6.29809791        -0.4467934934        -0.2097135235        -0.2825303095       -0.01393592126     -2.616070686e-11     -9.149542107e-23         -2.928472975         -2.841096201         -1.703405071         -1.495439495        -0.6171211126        -0.3401361765        -0.2566270443        -0.1667451251 
                   1                    3           2.39767105        -0.2399532068        -0.1126279438        -0.1517346487      -0.007484372632     -1.404976929e-11     -4.913818131e-23         -1.605403248         -1.744486559        -0.9132311319        -0.8129195135          0.131575573        -0.3885665698         0.4515845964       0.009892730985 
                   1                    1          15.03333621       0.005539369673       0.002600039501       0.003502825916      0.0001727782985      3.243418454e-13      1.134365133e-24      -0.005635965698      -0.007003430851      -0.006614517128         0.0234132626       -0.02538808959        0.02302188402        0.02698421549        0.03765400458 
                   0                    7           7.02161552        -0.6524551841        -0.2493740626        -0.2668496727      -0.001662203228     -3.421698439e-16     -1.346931288e-32         -3.173043723         -3.082365283          -2.12266908         -1.309807293        -0.5235943563        -0.4160276912       -0.05126937604         -0.271191368 
                   1                    4           1.26577632       0.007328237325       0.002800916229        0.00299719855      1.866951177e-05      3.843178632e-18      1.512844465e-34       -0.07215892826        -0.2459899577        0.02618790786         0.0126318617        0.06166690462        0.01005384514        0.04441330712         0.1175121739 
                   1                    1          15.02921883       0.006947405327       0.002655358917       0.002841440888      1.769929927e-05      3.643457289e-18      1.434225343e-34         -0.086667156        -0.2339922414       0.004591961157         0.0162469358       0.003729377838        0.01577126911        0.04257086072         0.1141127555 
                   0                   12           9.20957458        -0.7436881288        -0.1201399439       -0.01842998024     -5.244283457e-12     -8.224683865e-57    -2.429726654e-113        -0.6485732503         -0.526865853        -0.5820101618       -0.07323518691        -0.3193180319     -2.711698865e-05       -0.03796868632     -9.212689595e-24 
                   1                    2           0.05066348         0.1868202471        0.03018008912       0.004629754501      1.317404828e-12      2.066104611e-57     6.103662494e-114         0.1621713693         0.1290443788         0.1447613458         0.0191464761        0.07559159793      1.001718653e-05        0.04793649683     -8.932799269e-24 