ITEM: TIMESTEP
0
ITEM: NUMBER OF ENTRIES
576
ITEM: BOX BOUNDS pp pp pp
0 4.26
0 2.4768
0 30
ITEM: ENTRIES c_2[1] c_2[2] c_2[3] c_2[4] c_2[5] c_2[6] c_2[7] c_2[8] c_2[9] c_2[10] c_2[11] c_2[12] c_2[13] c_2[14] c_2[15] c_2[16] c_2[17] c_2[18] c_2[19] c_2[20] c_2[21] c_2[22] c_2[23] 
                   0                   99           0.64411195       -0.01489561475      -0.001613099077     -5.087857411e-05     -9.738621232e-12     -8.296960227e-17     -3.387599462e-20     -1.665957743e-88    -2.925111514e-174      -0.003704063368       -0.00302956364      -0.003612226574     -0.0006645594097      -0.002955792824     -2.839470029e-07      -0.002532923432     -9.856112197e-11      -0.001690352138      6.052458471e-30      -0.001643423522      2.005882384e-55 
                   1                    2          -4.96277761         0.1503179764        0.01627846806      0.0005134373054      9.827656398e-11      8.372815034e-16      3.418570528e-19      1.681188731e-87     2.951854293e-173        0.03756780074        0.03054224777        0.03667600315       0.006654947376         0.0302049846      2.272324421e-06        0.02603754763      3.990843482e-09        0.01679812787      8.586637725e-30         0.0141141592      1.371146843e-55 
                   1                    1          14.95044865       0.001613213892      0.0001747006675       5.51021384e-06       1.05470498e-12      8.985712724e-18      3.668813006e-21      1.804253278e-89     3.167932717e-175      0.0003834186696      0.0003125499541      0.0003737912083      6.796276414e-05      0.0003052407371      2.668545612e-08      0.0002630184066       5.26122658e-11      0.0001872931859      2.549131725e-31      0.0001792608535      6.539193948e-57 
                   0                   77          -3.61588825         0.4988297635        0.07695073291        0.01008875834      4.254785362e-07      1.584927731e-10      7.710300819e-13       4.14237427e-60     1.023462049e-119         0.3823516025         0.3321867055         0.3632309811         0.1070011783         0.2491540409      0.0003729244117         0.1921266995      1.460858115e-05        0.08714487366      1.094492396e-14        0.05450384904     -3.032794236e-25 
                   1                    2          -2.48597761         0.5189760429         0.0800585486        0.01049621386      4.426623735e-07       1.64893834e-10      8.021697384e-13      4.309672686e-60     1.064796697e-119         0.3989788936         0.3482205335         0.3795173384         0.1109062147         0.2656658641      0.0003525551593         0.2091936782      1.162203957e-05        0.07465742173      4.811758745e-14        0.01902820201      1.327490449e-24 
                   1                    1          14.95044865       0.009212992287       0.001421219343      0.0001863314091      7.858252973e-09      2.927236509e-12      1.424031747e-14      7.650638553e-62     1.890253681e-121       0.005517631252       0.005292844766        0.00510061253       0.002367359001       0.002565190391        7.7312903e-06       0.001155681174      1.902609779e-07      -0.002496323675      1.375744603e-15      -0.002965027745       4.68956394e-26 
                   0                   79          -1.51545441         0.2104929425        0.03243861995       0.004238141837      1.763897268e-07      6.508382362e-11      3.146285941e-13      1.491494053e-60     3.152068544e-120         0.1615543708         0.1415525475         0.1538307375        0.04477997894         0.1095192564      0.0001163863544        0.08745262875       8.77127446e-07        0.02192067469      9.252263802e-15       -0.00522242575      2.463755264e-25 
                   1                    4          -3.72337601         0.6871428487         0.1058941239        0.01383518526      5.758147421e-07      2.124626291e-10      1.027088062e-12      4.868901828e-60     1.028975762e-119         0.5258736782         0.4587914834         0.4997912422         0.1480869517         0.3445035919      0.0004333074163         0.2661663214      1.062666559e-05         0.1020514153      1.426193467e-14        0.04510627448      1.402804053e-25 
                   1                    1          14.91364252        0.01422806821        0.00219265735      0.0002864731257      1.192289412e-08      4.399278529e-12      2.126701754e-14      1.008161076e-61     2.130610449e-121        0.01024105974       0.008892109316       0.009730691821       0.002779661405       0.006930359159      1.172280347e-05       0.005652990544      1.862856702e-07       0.002401575334      4.721614173e-16      0.0006295187339      1.027090715e-26 
                   0                   68           0.02347182                   -0                   -0                   -0                   -0                   -0                   -0                   -0                   -0      0.0003583195278       -0.00648313746       0.001219260953      -0.008786267629        0.01097094177      0.0004579400449        0.01655622668       5.48736834e-05        0.04101455641     -8.133637676e-05        0.04906017081     -8.927851294e-06 
                   1                    1           -3.6532344         0.8137120297         0.1388539779        0.02547174737      3.870552671e-06      3.640260861e-09      3.272168883e-11      3.518983774e-53     3.615938187e-106         0.8173267084         0.5969630684         0.7690847654         0.2250265044         0.5337280863         0.0062641338         0.4274183985        0.00350174458         0.2296445521      0.0003031689743         0.1939697993      1.441987013e-05 
                   1                    1          15.01766476                   -0                   -0                   -0                   -0                   -0                   -0                   -0                   -0      -0.005297553628      -0.003531737446      -0.005413981616      0.0004490758029       -0.00633913943      -7.10341162e-06      -0.006960776327     -3.528629293e-06      -0.006325635775      8.808832338e-06      -0.006057293323      9.668975718e-07 
                   0                   69           0.64411195         -0.143979292       -0.03623783282       -0.01884996442     -0.0001654835311     -3.021062496e-06     -1.948252931e-07     -2.393097784e-32     -5.000960905e-64        -0.3424776209        -0.2947234216        -0.2963002271        -0.1457182331         -0.127388553       -0.02139278454       -0.07035969227       -0.02054632591       -0.07668489321      -0.002106481765        -0.2744998861      -0.001090465946 
                   1                    2          -2.48597761         0.8783753877         0.2210763784         0.1149980985       0.001009566437      1.843061529e-05      1.188571911e-06      1.459958696e-31      3.050939417e-63           2.12875444          1.928256689          1.862387697         0.8544731518          1.106447255         0.1041632368         0.8674538111        0.04855209889         0.4069679062       0.005229879754         0.1940322439       0.003452489504 
                   1                    1          14.95044865        0.01559313919       0.003924603066       0.002041474955      1.792207544e-05      3.271848841e-07      2.109982532e-08      2.591755127e-33      5.416103826e-65        0.02545941223        0.02057339332        0.02103230798        0.01004753506        0.01118820947       0.003010198739       0.008246272638       0.002325724715        0.01586009796      0.0002283204574        0.03347549404      0.0001180988509 
                   0                   71           2.74454579        -0.2437584902       -0.03217280641      -0.002369160772     -1.133259399e-08     -8.938778986e-13     -1.558932973e-15     -1.258864457e-71    -3.066010084e-142        -0.1189906619        -0.1133676824        -0.1153948756       -0.02446014683       -0.09133151502     -3.698100069e-05       -0.07659569075     -7.793499202e-07       -0.04062798184     -6.462974902e-18       -0.03387029544     -1.637926087e-31 
                   1                    4          -3.72337601         0.4500354211        0.05939855662       0.004374027198      2.092263003e-08      1.650308534e-12      2.878156393e-15       2.32415944e-71     5.660574687e-142         0.2196262513         0.1696156824         0.2129486523        0.04524327757         0.1678181797       6.78793629e-05         0.1397281884      1.598083564e-06        0.07041789383       6.79360939e-18        0.05501113731      5.186670608e-32 
                   1                    1          14.91364252       0.009318491319       0.001229914154      9.056916981e-05      4.332266688e-10      3.417150078e-14       5.95954765e-17      4.812434432e-73     1.172085876e-143        0.00435663797      -0.005916217681       0.004217984707      0.0008962541653       0.003243382716      1.217659712e-06       0.002568473312      2.386455484e-08       0.000213572946      2.563364193e-19        -0.0010064137      5.876113108e-33 
                   0                   73           4.90411215        -0.1830979199       -0.02064053832     -0.0007826734259      -3.06066634e-10     -4.242859753e-15     -2.371885095e-18     -4.423266341e-84    -1.147502009e-166       -0.05280868766       -0.04366456852       -0.05141947665       -0.01023185295       -0.04136943503     -4.154814796e-06       -0.03492567521     -1.222027082e-08       -0.02087542741     -6.479001508e-28        -0.0166160367     -4.136322305e-52 
                   1                    2          -2.48597761          0.142045207        0.01601268621      0.0006071888137      2.374428852e-10       3.29156056e-15      1.840080485e-18      3.431517863e-84     8.902185259e-167        0.04088585502        0.03380034576        0.03979822944       0.007920209436        0.03199109812      3.424782872e-06        0.02701624655      7.375270246e-09        0.01649798532     -1.331601446e-28        0.01365379753     -2.398509483e-52 
                   1                    1          14.95044865       0.002521621979      0.0002842612035      1.077896742e-05       4.21514538e-12      5.843260486e-17      3.266556818e-20      6.091716186e-86     1.580338153e-168       0.000664355548      0.0006167616725      0.0006422420747       0.000182465926      0.0004785864585      5.930653853e-08      0.0003685604602      2.029703987e-10      6.133763522e-05      1.818240859e-29     -0.0001241202746      1.387170624e-53 
                   0                   50          -5.77545461         0.1120086424        0.01196226918      0.0003533907872      5.219236406e-11      3.726166628e-16      1.358134357e-19       8.16981094e-89      1.11190544e-175        0.02689695735        0.02185590486        0.02627519255       0.004719348817        0.02171459447      1.488061592e-06        0.01871287126      2.287502123e-09        0.01198435247      1.592312075e-30        0.01022891779      4.611170392e-57 
                   1                    4          -1.24657601        0.04919522181       0.005253938205       0.000155212471      2.292336441e-11      1.636566517e-16       5.96505051e-20      3.588255806e-89     4.883590551e-176        0.01182713534       0.009612132559        0.01155489642       0.002079141977        0.00955096144      6.186092464e-07       0.008232228443        1.1836641e-09       0.005230302697      2.719814965e-30       0.004325489766      2.780371714e-56 
                   1                    1          14.91364252        0.00200923223      0.0002145814489      6.339190835e-06      9.362365062e-13      6.684068232e-18      2.436247118e-21      1.465516151e-90     1.994557026e-177      0.0004756548307       0.000392072615      0.0004641967219       8.75591733e-05      0.0003802610311      2.726561665e-08      0.0003251808765      4.130920193e-11      0.0002011268994      2.856319541e-32      0.0001653493168      8.271604736e-59 
                   0                   42          -4.23652838         0.7091767466         0.1220831632        0.02302895094      3.894688774e-06      3.958702083e-09       3.74652031e-11      1.123147344e-52     4.151769392e-105         0.7270037486         0.6346909222         0.6824152737         0.2129131365         0.4649507729       0.005947766041         0.3670345419        0.00323680957         0.1710759058        0.00016477986         0.1255186044      3.922661933e-06 
                   1                    1           -1.1764344         0.4123213341        0.07098017947        0.01338922606       2.26440486e-06      2.301622737e-09      2.178258467e-11      6.530073264e-53     2.413873696e-105         0.4234348263         0.3374213378         0.3982497588         0.1087914269         0.2822652413       0.003969350566         0.2307411829       0.001874165992         0.1509678021        2.8747184e-05         0.1513019032     -6.580575592e-07 
                   1                    1          15.01766476                   -0                   -0                   -0                   -0                   -0                   -0                   -0                   -0      -0.005804521798        0.01971260563      -0.006103743262       0.007322676823      -0.008787488275     -1.323939625e-05       -0.01099128973       5.75484797e-07       -0.01909723853      5.589360245e-06       -0.02983346132      2.449491031e-07 
                   0                   43          -3.61588825          0.840501582         0.2091856461         0.1061527084      0.0008451925094      1.436010207e-05      8.828575562e-07      4.179374685e-32      2.653449365e-64          1.979532888          1.785714347          1.729290506         0.8018309709           1.00035814         0.0958580873         0.7686647922        0.04530733422         0.3750589171       0.005886619124         0.3030587042       0.003363327323 
                   1                    2          -0.00917761         0.3024359004        0.07527082708        0.03819670378      0.0003041238269      5.167165051e-06      3.176767607e-07      1.503855523e-32      9.547850535e-65         0.7163601556         0.6676132214         0.6274365433          0.288782622          0.407089348        0.03065191367         0.3398414621       0.005780394569        0.09746877064       0.001222118322        -0.1839205953      0.0002625186022 
                   1                    1          14.95044865        0.01552340129       0.003863493892       0.001960556798      1.561003901e-05      2.652197589e-07      1.630568272e-08        7.7189754e-34       4.90071169e-66        0.02422596188        0.02821949651        0.01908042529        0.01989218596      0.0002242218915       0.002562400182       -0.01084580671       0.001790180948         -0.038757729      0.0002546566496       -0.03530402535       0.000253536186 
                   0                   44          -2.21415976         0.4693128638        0.09932227256        0.03404182891       5.80936728e-05      3.186676751e-07      9.239135552e-09      1.347018374e-40       6.26351741e-81         0.7822630345         0.6907859748         0.7094030631         0.2885017717         0.4089192817        0.02299004039         0.2836607235        0.01985822769         0.1207975041        0.02027025467         0.1109189262        0.02098094565 
                   1                    3          -2.40082371         0.7762742402         0.1642855494        0.05630741647      9.609074285e-05      5.270972232e-07      1.528213583e-08      2.228056687e-40      1.036026837e-80          1.296063355          1.144008497          1.174286261         0.4745588102         0.6807547944        0.03818013508         0.4789376007        0.03215503986         0.2117745629        0.02781825747         0.1905401284        0.02373951331 
                   1                    1          14.94866767        0.01447120348       0.003062589856       0.001049675538      1.791311137e-06      9.826077918e-09      2.848875896e-10      4.153514314e-42      1.931347762e-82        0.01566945694          0.161041289        0.01420464115        0.02923430421       0.005740411301      0.0007189975669       0.001809527082       0.001036888974       -0.01841767074       0.004130108331       -0.03944276555       0.007377306627 
                   0                   45          -1.51545441         0.3686796063         0.1292455721          0.122756581        0.01181092144       0.001260359286      0.0002631244503      4.938122531e-19       5.48535311e-38           1.58685467          1.569603071          1.248104618         0.9180819516          0.506887656         0.2432947856         0.2738164916          0.203505646        0.02126724542         0.1864404153        0.01906821767         0.2218608561 
                   1                    4          -1.24657601         0.6101692281         0.2139029922         0.2031636331         0.0195472185       0.002085909932      0.0004354741624      8.172652792e-19      9.078326049e-38          2.666752702          2.582680666           2.07980668          1.518046482         0.8357164767         0.3991896511         0.4736937562         0.3159399275        0.08100680824         0.1714931375        0.05492053904          0.103478895 
                   1                    1          14.91364252        0.02492054378       0.008736230271       0.008297613152      0.0007983478874      8.519277503e-05      1.778564442e-05      3.337876482e-20      3.707771734e-39        0.05566580455        -0.1221288608        0.05004651677        0.01474300938        0.04929811275          0.027218056        0.04961561002        0.03905288522        0.04825408319         0.1304206642        0.07200293088          0.222256466 
                   0                   34           0.02347182                   -0                   -0                   -0                   -0                   -0                   -0                   -0                   -0         0.0273934136        -0.1077291692        0.05591730303        -0.1699893008         0.2944508595       -0.09466774427         0.4743995792        -0.1778224849         0.7031078431       -0.08760082704         0.6276185242       -0.01149672305 
                   1                    1           -1.1764344         0.5572350607         0.2433932895         0.3048959963        0.08916197783        0.02165100651       0.007813167168      8.180428237e-13      7.761829956e-26          3.303885012          3.377283948          2.461485868          2.195862662         0.9001823897         0.6708674438         0.5734241297         0.4582926168        0.09829829427          0.177253904         0.0376547863         0.1543693403 
                   1                    1          15.01766476                   -0                   -0                   -0                   -0                   -0                   -0                   -0                   -0        -0.0751028843       -0.04383625385       -0.08691920168        0.02135053869        -0.1064052527        0.01679487623        -0.1233841856        0.02317914049       -0.09776385632        0.01038984314       -0.07373858063       0.001275775772 
                   0                   35           0.64411195       -0.09675673878       -0.07602684943         -0.142744163        -0.2144109207        -0.1750261127        -0.1415853882     -0.0001490989755     -7.975691296e-09         -1.245303572         -1.415772288        -0.5954836408         -1.166681962        0.04471873765        -0.6374151281      -0.008435922088        -0.4905771349          -0.42900458        0.03441980158        0.02833986941         0.3703998291 
                   1                    2          -0.00917761         0.2041555552         0.1604157379         0.3011884673          0.452404464         0.3693029927         0.2987434662      0.0003145970451      1.682861271e-08           2.61574803          2.763809895          1.431332604          2.363529111        0.09856778024         0.8550445978       -0.03413005392          0.483780698        -0.2969729786         0.2432602803        -0.0674922718         0.3187684724 
                   1                    1          14.95044865        0.01047887702       0.008233803822        0.01545937316        0.02322097353        0.01895554907        0.01533387637      1.614760737e-05      8.637774414e-10        0.02306721233       -0.02002032847       -0.05676625589       0.008136950325         0.1313483516         0.1863237673         0.1998583377         0.1785020617         0.2661642327         0.2493841026         0.2822287517         0.3408670619 
                   0                   36           2.04584044        -0.4361821968       -0.09584039164       -0.03618216871     -9.009823256e-05      -6.51908328e-07     -2.272035873e-08     -1.300714849e-38     -5.929884715e-77        -0.7989488567        -0.6310382418         -0.721532634        -0.2550424408        -0.4738163921       -0.02172416928        -0.3882844845       -0.00573000064        -0.2407613566     -6.280369219e-07        -0.2544172584     -3.284360485e-12 
                   1                    3          -2.40082371         0.7982683611         0.1753999887        0.06621792621      0.0001648911143      1.193074354e-06      4.158111831e-08       2.38047201e-38      1.085243595e-76          1.464910885          1.323456634          1.323489586         0.5170846261         0.8560968087        0.03727103894         0.6768285385       0.007577673651         0.2918356517     -7.997178545e-08         0.1931921778     -1.090001102e-12 
                   1                    1          14.94866767        0.01488121502       0.003269783788       0.001234425973      3.073878718e-06      2.224113702e-08      7.751498025e-10      4.437644977e-40      2.023097003e-78          0.019459794        0.05857626757        0.01700536239        0.01994422305       0.007658196848       0.001156435144      0.0009518760615      0.0004618264844       -0.03677513248      4.841388688e-08       -0.07107851002      2.543328382e-13 
                   0                   37           2.74454579        -0.6400675889        -0.1676378663       -0.09497842818      -0.001168694497     -2.735388981e-05     -2.081043162e-06      -6.91719863e-30     -8.906187748e-60         -1.684606367         -1.547980751         -1.465155286        -0.7042456979        -0.8746269463       -0.07922491838        -0.6771890366       -0.02434961163        -0.1409759058      -0.002767317623         0.1153917857       -0.00103746273 
                   1                    4          -1.24657601         0.5991071148         0.1569100516        0.08890038031       0.001093905082      2.560340546e-05      1.947868923e-06      6.474539542e-30      8.336245326e-60          1.575033938          1.428343982          1.368577285         0.6661955676         0.7382409603        0.07219793809         0.5323379901        0.03242203669         0.3029564709       0.003250457848          0.332595495       0.001732073714 
                   1                    1          14.91364252        0.02446874472       0.006408523455       0.003630871104      4.467729317e-05      1.045694796e-06      7.955490136e-08       2.64433273e-31      3.404690977e-61        0.05766551777        0.05263986032        0.05014955428        0.02358469008         0.0304170175       0.004391671287        0.02088279903         0.0023877361       0.006327855585      0.0002208899725       0.006029524592      0.0001793248121 
                   0                   38           4.28347202        -0.7091767466        -0.1220831632       -0.02302895094     -3.894688774e-06     -3.958702083e-09      -3.74652031e-11     -1.123147344e-52    -4.151769392e-105        -0.7313798938        -0.6139459642        -0.6879001754        -0.2049169947        -0.4707137424      -0.004189915592        -0.3704415479      -0.001482640661        -0.2038939508     -4.250003788e-05         -0.178208568     -5.188597405e-07 
                   1                    1           -1.1764344         0.4123213341        0.07098017947        0.01338922606       2.26440486e-06      2.301622737e-09      2.178258467e-11      6.530073264e-53     2.413873696e-105         0.4248918407         0.3819279419         0.3985894431         0.1308331798         0.2634291874       0.001746050713         0.2041161635       0.000715802592        0.08126176295      3.538446968e-05        0.04781400125      7.320424221e-07 
                   1                    1          15.01766476                   -0                   -0                   -0                   -0                   -0                   -0                   -0                   -0      -0.005771082773        0.02639903538      -0.006049265077       0.008359332981      -0.008506072341     -8.857020639e-06       -0.01057158837     -9.994266715e-06       -0.02055093142      1.150803724e-06       -0.03229158034       4.63975539e-08 
                   0                   39           4.90411215        -0.7589443546        -0.1251932431       -0.02058084988     -2.055317822e-06     -1.426203799e-09     -1.047841736e-11      -2.03857728e-55    -1.397039456e-110        -0.7007934121        -0.6142688598        -0.6611456603        -0.2075492916        -0.4433382894      -0.001023551112        -0.3448816608      -3.74965306e-05        -0.1349594894     -3.599901948e-13       -0.05272107389      -3.98333101e-23 
                   1                    2          -0.00917761         0.2036352526        0.03359107625       0.005522126277       5.51470159e-07      3.826701774e-10        2.8115041e-12      5.469784403e-56     3.748449815e-111         0.1871606376          0.163119943         0.1761070416        0.05612126517         0.1143090437      0.0002749648433        0.08687279591      1.274365374e-05        0.04881851927     -1.335493256e-13        0.03718005287     -4.030757022e-23 
                   1                    1          14.95044865        0.01045217098       0.001724159584      0.0002834391752      2.830580815e-08      1.964165867e-11      1.443086165e-13      2.807525764e-57     1.924000775e-112       0.007200724181       0.006973923741       0.006530375149       0.003366904568        0.00290809445      2.138923067e-05       0.001157297189      6.475643383e-07      -0.003423928013      4.957779926e-15      -0.003815549295      5.485837866e-25 
                   0                   16          -5.77545461         0.4649459918        0.05960509877       0.003908333463      1.209319282e-08       7.01994085e-13      1.000533776e-15      1.515952621e-73     2.606266171e-146         0.2084249645         0.1714800287          0.202337575        0.04249871461         0.1603498999      4.836951684e-05         0.1337914966      9.372776487e-07        0.06820002793      9.128633494e-19        0.05404995603      1.175822395e-33 
                   1                    4           1.23022399       0.005623809997      0.0007209606196      4.727371606e-05      1.462746639e-10      8.491053633e-15      1.210207626e-17      1.833638671e-75     3.152440499e-148       0.002514337056      0.0007954235288       0.002438583841      0.0005478114313       0.001800315507       1.07767722e-07       0.001278844844      2.430463228e-08      6.205070883e-05     -3.506963115e-20     -0.0003477990268     -7.202979369e-34 
                   1                    1          14.91364252       0.008340289212       0.001069207545      7.010842548e-05       2.16929982e-10      1.259250278e-14      1.794776426e-17      2.719344507e-75     4.675169592e-148       0.003558215101       0.001014536183       0.003441971466      0.0007337732885       0.002620444452      9.656056732e-07        0.00205861945      1.701405791e-08      0.0001872600036      1.637511556e-20     -0.0008704277692      2.109212469e-35 
                   0                    8          -4.23652838         0.9092325462         0.1968793749        0.07160755061      0.0001541166679      1.002058221e-06      3.252824998e-08      4.514180833e-39      3.503902196e-78          1.604455846          1.414026715          1.448604237          0.558358231         0.9372346441        0.04031243106         0.7462091494       0.008813366902         0.3492022763      9.894974042e-05         0.2651712881      2.164498315e-06 
                   1                    1            1.3003656                   -0                   -0                   -0                   -0                   -0                   -0                   -0                   -0      0.0001618580802        0.02771935846      6.580881998e-05        0.01360192317      -0.004863088827     -0.0006248061566       -0.01178811553     -0.0005327049355       -0.04341738275      1.007245923e-07       -0.08503835501       6.13845258e-08 
                   1                    1          15.01766476                   -0                   -0                   -0                   -0                   -0                   -0                   -0                   -0       -0.01547744208        0.03079391693       -0.01654499469        0.02212799117       -0.02624132059      0.0002732273065       -0.03591250352      0.0001563779484        -0.0934025079      -1.82425436e-07        -0.1548235791      1.472025905e-08 
                   0                    9          -3.61588825         0.8460302146         0.2140920793         0.1126926837        0.00103671763      1.958913621e-05      1.292540119e-06      2.507083478e-31      9.271875707e-63          2.061403029          1.875912023           1.79481563         0.8599217294          1.016853365        0.09593815178         0.7620686777        0.04045916819         0.3194935413       0.006871070938         0.2233014301       0.003554384736 