ITEM: TIMESTEP
0
ITEM: NUMBER OF ENTRIES
576
ITEM: BOX BOUNDS pp pp pp
0 4.26
0 2.4768
0 30
ITEM: ENTRIES c_2[1] c_2[2] c_2[3] c_2[4] c_2[5] c_2[6] c_2[7] c_2[8] c_2[9] c_2[10] c_2[11] c_2[12] c_2[13] c_2[14] c_2[15] c_2[16] c_2[17] 
                   0                   94           0.74395455       -0.01917368825      -0.002101448112     -7.008301239e-05     -7.411630891e-20     -2.186640218e-87    -3.441788371e-172      -0.004985098588      -0.003661485873      -0.004728468246     -0.0002807644265      -0.003347814512     -2.836011891e-11      -0.002154207835        6.5195808e-57 
                   1                    2          -5.02736371          0.174463676        0.01912132698      0.0006376936878      6.743931338e-19      1.989650012e-86     3.131724285e-171        0.04549891754        0.03318054212        0.04323399334       0.002477038861        0.03086693205      4.280749371e-09        0.01618060185      4.020402771e-57 
                   1                    1          15.02094958      -0.001771493384     -0.0001941567724     -6.475102294e-06     -6.847746201e-21     -2.020278325e-88    -3.179933484e-173     -0.0004708915159     -0.0003444634836     -0.0004481246122     -2.489517831e-05     -0.0003218897487     -5.119067606e-11     -0.0002017192208     -1.163944992e-58 
                   0                   77          -3.51604565         0.5152198676        0.08148073235        0.01163528796      1.815677296e-12      2.122559644e-58      2.45193254e-116         0.4231875363         0.3383659201         0.3812665073        0.04610368866         0.2152914191      1.631390805e-05         0.0623515116     -4.610055183e-25 
                   1                    2          -2.55056371         0.5395031181        0.08532106763        0.01218368027      1.901253473e-12      2.222599745e-58     2.567496585e-116         0.4441814641         0.3573795642         0.4010243693        0.04747333399         0.2327997914      1.261165785e-05        0.03092396557      2.168136981e-24 
                   1                    1          15.02094958      -0.009101271658       -0.00143934333     -0.0002055353903     -3.207363178e-14     -3.749465644e-60    -4.331297284e-118      -0.008145395587      -0.005808043175      -0.007607668919     -0.0005931193865      -0.005729630369     -2.378652331e-07       -0.00497364506     -5.202193114e-26 
                   0                   78          -2.06010995         0.4474307723        0.09543238014        0.03338191159      1.080991353e-08      3.412095121e-40      4.164339797e-80         0.7531729317         0.6971343912         0.6335834805         0.1388316031         0.2808197946        0.01758354984        0.03414837995        0.01607041118 
                   1                    3           -2.5501132         0.7901385436         0.1685284216        0.05895065033      1.908972262e-08      6.025575432e-40      7.353998844e-80          1.332832193          1.074060487          1.122127258         0.2444926675         0.5110071936        0.03101569326         0.2362282248        0.02828101523 
                   1                    1           14.9995999      -0.008825780273      -0.001882448124     -0.0006584737461     -2.132305767e-10     -6.730516466e-42     -8.214354109e-82       -0.01138305781        0.02887102477       -0.01351973188      -0.001896150025       -0.01227748796     -0.0006477841506       -0.05141726839       -0.00602128777 
                   0                   79          -1.46567192         0.2219150235        0.03526899745       0.005121401666      9.195341662e-13      1.970257184e-58     4.849247951e-116         0.1841429411         0.1503859976         0.1663405295        0.01958814558        0.09596367214      5.045227495e-06      -0.009763614942      1.645732581e-24 
                   1                    4          -3.73896267         0.7174605074         0.1140261367        0.01655770475      2.972892232e-12       6.36992348e-58     1.567782046e-115         0.5959646502         0.4809122863         0.5365919783        0.06531127665         0.2989924221      2.447370596e-05        0.05389228277       3.42574026e-25 
                   1                    1          14.92537864       0.004711698851      0.0007488312063      0.0001087375788      1.952354557e-14      4.183249228e-60     1.029592122e-117       0.005834623923       0.004290294859          0.005597912      0.0002606408931       0.004308849993      2.028580899e-07       0.001713806373     -1.866625373e-26 
                   0                   68           0.06019641                   -0                   -0                   -0                   -0                   -0                   -0     -0.0004874674663      -0.008029584945       0.001184147918      -0.001757350848        0.01252418431      9.113049454e-05        0.04507989243     -3.475108258e-06 
                   1                    1          -3.75936685         0.8137120297         0.1388539779        0.02547174737      3.272168883e-11      3.518983774e-53     3.615938187e-106         0.8124896714         0.5557794254         0.7246176559        0.09754872418         0.4180436934       0.002724666421         0.1878342769      6.155597825e-06 
                   1                    1          14.95777587                   -0                   -0                   -0                   -0                   -0                   -0       0.001614813246       0.000327459488       0.001857047411     -0.0002624449094       0.003217000697      7.142330498e-06       0.004513083906     -3.210718359e-07 
                   0                   69           0.74395455        -0.1592810595       -0.04053236833       -0.02159565545     -2.755632248e-07      -8.53431044e-32     -5.663530778e-63        -0.3858736681        -0.3134832186        -0.2999275432       -0.09871435518       -0.08353123365       -0.01903882421        -0.3145785622      -0.001385493555 
                   1                    2          -2.55056371         0.8723482422         0.2219870986         0.1182747788      1.509200752e-06      4.674059008e-31      3.101794484e-62          2.136997257          1.842514736          1.686008203         0.5149504043         0.8470841546        0.04588349296         0.1363746675       0.003530524882 
                   1                    1          15.02094958       -0.01471627886      -0.003744862302      -0.001995263522     -2.545980842e-08     -7.885011106e-33     -5.232643387e-64       -0.03976180903        -0.0299394108       -0.03348131732      -0.007335201548       -0.01927292691      -0.001874192787       -0.03301016607     -0.0001280084213 
                   0                   70           2.19989025        -0.4503496309       -0.09573438375        -0.0331968699     -9.967529188e-09     -2.260579164e-40     -1.825529717e-80        -0.7595669547        -0.5594079322        -0.6393705208        -0.1353659064        -0.3656985379      -0.004225992994        -0.1825279351     -9.848026946e-14 
                   1                    3           -2.5501132         0.7880870454         0.1675298978         0.0580926936        1.7442627e-08      3.955889008e-40      3.194576441e-80          1.333034197          1.103106979          1.123465987         0.2358367001         0.6368219114       0.006655876942         0.2266234762      3.200807937e-14 
                   1                    1           14.9995999      -0.008802865213      -0.001871294698     -0.0006488904425     -1.948326588e-10     -4.418694348e-42     -3.568314692e-82       -0.01473215801       -0.08052002998        -0.0121895065      -0.002856072282     -0.0007500907951     -0.0001504058744         0.0701947354     -1.139908948e-14 
                   0                   71           2.79432828        -0.2667112939       -0.03609406058      -0.002930142307     -4.274364187e-15     -1.004705956e-69    -1.635176247e-138        -0.1398243695        -0.1071080152        -0.1309096908      -0.009781170975       -0.08789370036     -3.537805645e-06       -0.03527947955     -6.138118915e-17 
                   1                    4          -3.73896267         0.4812273521        0.06512453577       0.005286857573       7.71223794e-15      1.812791576e-69     2.950349511e-138         0.2525140583         0.1849333377         0.2364706774        0.01760325757         0.1585688543      8.887620879e-06        0.06369153681      1.292364323e-16 
                   1                    1          14.92537864       0.003160311039      0.0004276851439      3.471979362e-05      5.064772522e-17      1.190494514e-71     1.937550326e-140        0.00230476577      -0.008127801255        0.00229511373      1.162177508e-05       0.002603523586      1.132138948e-07       0.007578917278      1.266772544e-18 
                   0                   73           5.00395475         -0.171321848       -0.01914944178     -0.0006987412832     -1.547120044e-18     -8.302506134e-85    -4.632264709e-168       -0.04819103488       -0.03540712072       -0.04574259871      -0.002677881944       -0.03241197835     -6.614745448e-09       -0.01612396238     -2.464742808e-55 
                   1                    2          -2.55056371         0.1297728316        0.01450531448      0.0005292823766      1.171912113e-18      6.288980318e-85      3.50884674e-168        0.03647215196        0.02680075274        0.03460214917       0.002045483077        0.02447738167      3.813210763e-09         0.0129191753     -1.455033131e-55 
                   1                    1          15.02094958      -0.002189232563     -0.0002447007314     -8.928850514e-06     -1.976984033e-20     -1.060933967e-86    -5.919329531e-170     -0.0006333597109     -0.0004093922281     -0.0006031334734     -3.306229265e-05      -0.000442136499     -9.222626288e-11     -0.0003940209865     -4.531550038e-57 
                   0                   50          -5.72567212         0.1444998403        0.01569372267      0.0005017226556       3.73804209e-19      2.835710479e-87     8.456528625e-173        0.03664961269        0.02684508557        0.03487423708       0.001941169964        0.02492113487      3.860807542e-09        0.01235495806      2.658621331e-56 
                   1                    4          -1.26216267        0.06134754046       0.006662784432      0.0002130068161      1.586989216e-19      1.203903499e-87     3.590227026e-173         0.0155623001        0.01134857925        0.01481097356      0.0008213596236        0.01056500325      2.029798777e-09       0.004839212755      3.012097499e-55 
                   1                    1          14.92537864      0.0008091083538      8.787499064e-05      2.809331769e-06      2.093068806e-21      1.587819774e-89     4.735124925e-175      0.0002323248225      9.704985663e-05      0.0002242530838      8.834756705e-06       0.000186446428      2.043538687e-11      0.0002829913041      1.488660973e-58 
                   0                   42          -4.19980379         0.7091767466         0.1220831632        0.02302895094       3.74652031e-11      1.123147344e-52     4.151769392e-105         0.7272471961         0.5451763671         0.6468422511        0.08923842002         0.3691426675       0.002605126839         0.1478683559      5.835984627e-06 
                   1                    1          -1.28256685         0.4123213341        0.07098017947        0.01338922606      2.178258467e-11      6.530073264e-53     2.413873696e-105         0.4225448171         0.3548198961          0.377434448          0.050184154         0.2238959377       0.001603315421          0.123810299     -2.935394552e-07 
                   1                    1          14.95777587                   -0                   -0                   -0                   -0                   -0                   -0        0.00161167755       -0.05410019745       0.001590176784      2.518549753e-05       0.002685714995      4.532870049e-06        0.02056926099      -2.87081805e-07 
                   0                   43          -3.51604565         0.8344386708         0.2132967037         0.1147544622      1.594892082e-06      7.186848019e-31      7.619848551e-62          2.058583344          1.771920826          1.620917989         0.5001277369         0.7704349014        0.05006803264         0.2527554689         0.0046482074 
                   1                    2          -0.07376371         0.2958596193        0.07562674617         0.0406874857      5.654869325e-07      2.548177827e-31      2.701703037e-62         0.7337756193         0.6548762146          0.580813514         0.1741276164         0.3286900715       0.006014743002        -0.2504652021      0.0006120858244 
                   1                    1          15.02094958       -0.01474021773      -0.003767850128      -0.002027118129     -2.817349838e-08     -1.269544524e-32     -1.346033335e-63       -0.04077337931       -0.02914163745       -0.03651837522      -0.005192559091       -0.03680531026       -0.00188870645       -0.01655750338     -0.0002648574922 
                   0                   44          -2.06010995         0.4764725312         0.2087178845         0.2622624857       0.006908820066      8.169703017e-13      9.024938642e-26          2.845856103          2.896444695          1.678229332          1.401131782         0.2724714233         0.4632874549         -0.237954859         0.1103009999 
                   1                    3           -0.0733132         0.2848413933         0.1247742296         0.1567838793        0.00413018129      4.883953298e-13      5.395224129e-26          1.675542296           1.52960597          1.019711581         0.8211513665         0.5414619935         0.1005578544         0.4506840736         0.1064641846 
                   1                    1           14.9995999      -0.009398642487      -0.004117057434      -0.005173249619      -0.000136279692     -1.611511952e-14      -1.78021116e-27       0.006906210276        0.06620563789       -0.04460148049       -0.01608861598       -0.07900732783        -0.0343155334       -0.03434641895       -0.06028114211 
                   0                   45          -1.46567192         0.3632342256         0.1319772117         0.1319257878      0.0004465823127      6.267301648e-18      8.602516644e-36          1.546638187          1.482734541           1.09380194         0.6585329599         0.2474567371          0.214859864         0.1157214015         0.2504635079 
                   1                    4          -1.26216267         0.5847470689         0.2124614981          0.212378714      0.0007189237135      1.008931981e-17         1.384863e-35          2.663028767          2.579236965           1.76781447          1.056679265          0.492734482         0.3288020478       -0.00784489404         0.1521041543 
                   1                    1          14.92537864       0.007712187559       0.002802139607       0.002801047775      9.481833794e-06      1.330673224e-19      1.826485974e-37         0.1395944564       -0.01111823906        0.05983463176       0.006479123838        0.05773990261      -0.005411566344        0.08111555211        -0.1082366368 
                   0                   34           0.06019641                   -0                   -0                   -0                   -0                   -0                   -0        0.02254600385        -0.1308051614        0.01881901748       -0.01911054605         0.4030044134        -0.1590827761         0.5641139316      -0.006224323406 
                   1                    1          -1.28256685         0.5572350607         0.2433932895         0.3048959963       0.007813167168      8.180428237e-13      7.761829956e-26          3.227580902          3.262802633          1.977500516          1.610506478         0.5427615757         0.4308803385        0.03178371647         0.1521305159 
                   1                    1          14.95777587                   -0                   -0                   -0                   -0                   -0                   -0        0.02494411738       0.001228306886        0.02942399386      -0.007690943406        0.06635844108       -0.01665919189        0.05491818609     -0.0005938509325 
                   0                   35           0.74395455        -0.1060624209       -0.08387133008        -0.1578708725        -0.1602201972     -0.0001866833613     -1.133190567e-08         -1.416302377         -1.591459556        -0.3831598804         -1.101055356        0.03382239757        -0.3440455511         0.0826943723         0.1698591122 
                   1                    2          -0.07376371         0.1966877011         0.1555353815         0.2927640038         0.2971207142        0.00034619539      2.101447861e-08           2.33873164          2.636379804          0.801102422          1.966093717        -0.0294165708         0.5613774083       -0.04094266347         0.3289544575 
                   1                    1          15.02094958       -0.00979930801      -0.007749031088       -0.01458598902       -0.01480304757     -1.724802944e-05     -1.046976234e-09       -0.02028559654         0.1489960176        -0.0913913811       -0.06173276534           -0.2624819        -0.1255042426         -0.311784769         -0.213315178 
                   0                   36           2.19989025        -0.4823449989        -0.2096492587        -0.2612455871      -0.006384883563     -5.425496613e-13     -3.965780494e-26         -2.868011801         -2.774890489         -1.721435895         -1.358025289         -0.645739949        -0.2904537749        -0.3017496115         -0.112129993 
                   1                    3           -0.0733132         0.2857393106         0.1241954095         0.1547608747       0.003782380313      3.214043196e-13      2.349313016e-26          1.649072017          1.707298859          1.025822741         0.8077323663       -0.02707521661         0.3292070079        -0.4468564195         0.1031392743 
                   1                    1           14.9995999      -0.009428270217      -0.004097958652      -0.005106498447     -0.0001248036316     -1.060507484e-14     -7.751806321e-28        0.01719637004        0.08917550967       -0.03422648036       -0.02528956248       -0.03039471842      -0.009996398531        -0.1094323937       -0.05989371637 
                   0                   37           2.79432828        -0.6468000159        -0.1727374465        -0.1019126249     -3.190538667e-06     -5.082105347e-29     -4.635822815e-58         -1.741057965         -1.528247143         -1.352073667         -0.444862347        -0.6946883205       -0.03621174819         0.1019556877      -0.002473652343 
                   1                    4          -1.26216267         0.5810973761         0.1551905913        0.09156023105      2.866440325e-06      4.565859631e-29      4.164910958e-58          1.565025381          1.347011847          1.214137335         0.4018441124         0.5238040331        0.04656006826         0.3525359117       0.005598210187 
                   1                    1          14.92537864       0.007664052019       0.002046797686       0.001207581384      3.780527785e-08      6.021879837e-31       5.49307148e-60        0.03664902171        0.01494059055        0.03634350164      0.0005718453751        0.05665313076      0.0009831447487        0.07369441435     -5.163388111e-05 
                   0                   38           4.32019661        -0.7091767466        -0.1220831632       -0.02302895094      -3.74652031e-11     -1.123147344e-52    -4.151769392e-105        -0.7274241084         -0.541538784        -0.6496048114       -0.08623383718        -0.3766300832      -0.001551424224        -0.1862887702      -2.80578535e-06 
                   1                    1          -1.28256685         0.4123213341        0.07098017947        0.01338922606      2.178258467e-11      6.530073264e-53     2.413873696e-105         0.4241362012         0.3608626003         0.3766569736        0.05248495348         0.2055494392      0.0007573358889        0.05082169623      3.334970655e-06 
                   1                    1          14.95777587                   -0                   -0                   -0                   -0                   -0                   -0       0.001760419033       -0.06508427757        0.00197795868     -0.0002416644308       0.003135141502     -5.443655732e-06        0.01403154139      6.367934219e-08 
                   0                   39           5.00395475           -0.7462329        -0.1210151407       -0.01880363003     -5.958601393e-12     -1.488570637e-56    -7.864151486e-113        -0.6590625116        -0.5336987819        -0.5916499326       -0.07418447236        -0.3300302023     -2.864813381e-05       -0.04506366384     -1.386251849e-23 
                   1                    2          -0.07376371         0.1913970929        0.03103849498       0.004822837646      1.528288265e-12      3.817951372e-57     2.017032125e-113         0.1687151853         0.1359223051          0.150718912        0.01979405346        0.07987039932      1.059081107e-05        0.02852098248     -1.331510121e-23 
                   1                    1          15.02094958      -0.009535721121      -0.001546389382     -0.0002402817834      -7.61418602e-14     -1.902166798e-58    -1.004918912e-114      -0.009107346746      -0.006627642268      -0.008390367276     -0.0007929924913      -0.006672942028     -4.344141941e-07      -0.004148695476     -1.771418955e-25 
                   0                   15          -6.32011015        0.00445298603      0.0004499390468      1.014605641e-05      3.447068794e-22       2.17291907e-95      6.70391111e-187      0.0008541040514      0.0006362556683      0.0008173186897       4.01839733e-05      0.0005969629839      4.113270033e-11      0.0002090798925      1.108193374e-55 
                   1                    3            2.4034868     -0.0008439703577     -8.527653483e-05     -1.922972765e-06     -6.533197867e-23     -4.118313583e-96    -1.270586123e-187     -0.0001618746215      -0.000120607219     -0.0001549010956     -7.617836798e-06     -0.0001131155895      -7.79180649e-12     -3.961173684e-05     -1.421952111e-56 
                   1                    1           14.9995999     -2.919010545e-05     -2.949429469e-06     -6.650918161e-08     -2.259614131e-24     -1.424386611e-97    -4.394531465e-189     -5.596793503e-06     -4.169406767e-06     -5.355515573e-06      -2.63571888e-07     -3.911595007e-06     -2.694888766e-13     -1.376939786e-06     -6.216769498e-58 
                   0                   16          -5.72567212         0.4729968216        0.06093154398       0.004073930419      1.221803203e-15      3.599250075e-73     1.416461689e-145         0.2139440601         0.1529857244         0.2013054084        0.01384343987         0.1357452584      1.067726779e-06        0.05785111279      8.885922031e-34 
                   1                    4           1.21463733      -0.001668049012     -0.0002148784032     -1.436693716e-05     -4.308755437e-18     -1.269295111e-75    -4.995229171e-148     -0.0007442849305       0.003467753785     -0.0006937274639     -5.499331389e-05     -0.0002194777044     -8.718739462e-09      0.0007925483809      2.463145392e-34 
                   1                    1          14.92537864       0.002648485139      0.0003411783787      2.281145175e-05      6.841330595e-18      2.015353994e-75      7.93129586e-148       0.001609491451      -0.005430663634       0.001573601608      3.940642577e-05       0.001370983084      6.008153151e-09     -0.0001452862907      4.975558264e-36 
                   0                    8          -4.19980379         0.9092325462         0.1968793749        0.07160755061      3.252824998e-08      4.514180833e-39      3.503902196e-78          1.600228172          1.282145956          1.340057428         0.2929323599         0.7482718323       0.007828152103         0.3036273391      1.858192534e-14 
                   1                    1           1.19423315                   -0                   -0                   -0                   -0                   -0                   -0       0.000140467899       -0.09738894915      0.0003360952388     -0.0002379449732       0.006940885541     -0.0002349722919        0.04231160247     -5.778650438e-14 
                   1                    1          14.95777587                   -0                   -0                   -0                   -0                   -0                   -0       0.004345985659         0.1543336112       0.004178990579      0.0001627079429       0.003831445594     -0.0001734832096       -0.05177271808     -5.563136827e-15 
                   0                    9          -3.51604565         0.8365080038          0.215343563         0.1176300991       1.86866927e-06       1.51407893e-30      3.341444046e-61          2.093449981           1.79900678          1.644713146         0.5122148145         0.8002340964        0.04712345787         0.2562018822       0.003439962673 
                   1                    2           2.40303629        -0.2827474999       -0.07278813088       -0.03976006959     -6.316276258e-07     -5.117727867e-31     -1.129439223e-61        -0.7109103978        -0.6299215138        -0.5609373809        -0.1707845617        -0.3257880366      -0.005651122299         0.1975450359     -0.0002749323058 
                   1                    1          15.02094958       -0.01477677214      -0.003804007551      -0.002077915769     -3.300972602e-08     -2.674594774e-32     -5.902604287e-63       -0.04149175307       -0.02869968462       -0.03711938143      -0.005300284478       -0.03890070816      -0.001719750709       -0.02466234314     -0.0001914171875 
                   0                   10          -2.06010995         0.4737469424         0.2104184061         0.2682798416       0.008057102941      1.697717803e-12      3.860368503e-25          2.850397319          2.878044445          1.691615019          1.434024339         0.2656996881         0.4482715406        -0.2388389718         0.1466620253 
                   1                    3            2.4034868        -0.2701874739        -0.1200058776        -0.1530054259      -0.004595128951     -9.682428392e-13     -2.201646324e-25         -1.685877616         -1.578414799         -0.975797733        -0.8064318085        -0.5942978293       -0.08859084263        -0.4739350461       -0.04579528622 
                   1                    1           14.9995999      -0.009344878978      -0.004150601014      -0.005291944765     -0.0001589301063     -3.348827399e-14     -7.614756581e-27        0.01902235205        0.08946819136       -0.04515291361       -0.01643213869       -0.08514625019        -0.0319339561       -0.03584923271       -0.06118200201 
                   0                   11          -1.46567192         0.2480167232         0.1846871706         0.3390443246         0.2742029575      0.0001173153911      2.036033597e-09          2.818354462          3.157209845          0.984449891          2.256806553        0.01838963025         0.6683055347       -0.05862100733         0.2498375143 
                   1                    4           1.21463733      -0.003316523296      -0.002469669367      -0.004533760411      -0.003666690232     -1.568762068e-06     -2.722619979e-11         0.1377946795         0.1755284652      -0.005430458569       -0.03770238656        0.06391830746       -0.02630405342        0.06656750883        -0.1464499804 
                   1                    1          14.92537864       0.005265890029       0.003921277234       0.007198587682       0.005821876046      2.490839894e-06      4.322905682e-11        -0.1502822689        -0.3301346014         0.1251629767       0.001791275606         0.2360686537        0.02380418887         0.2145894618          0.233634256 
                   0                    1           0.74395455        -0.1028594626       -0.08452700098        -0.1614523935        -0.1871480542     -0.0003920328344     -4.953239872e-08         -1.455707796         -1.578942319        -0.3701870205         -1.135732285         0.0702694957        -0.3673676967         0.1550275023         0.1304720466 
                   1                    2           2.40303629         -0.181843307        -0.1494336933        -0.2854286462        -0.3308555209     -0.0006930674656     -8.756739497e-08         -2.227287319         -2.583242671        -0.7302196659         -1.945589064        0.04355390903        -0.5722301757       0.008442103138        -0.3309105144 
                   1                    1          15.02094958      -0.009503380628      -0.007809609765       -0.01491689252        -0.0172909633     -3.622065631e-05     -4.576392162e-09        0.04313797749         0.2464797039        -0.0928988617       -0.06244843578        -0.2806597007         -0.140263321        -0.3634997323        -0.2604868304 
                   0                    2           2.19989025        -0.4796680128        -0.2113595044        -0.2672431906      -0.007446215724     -1.127474286e-12     -1.696372159e-25         -2.870280512         -2.758073788         -1.737723647         -1.387686316        -0.6464316146        -0.3000750062        -0.2465521998        -0.1477306171 
                   1                    3            2.4034868        -0.2710856499        -0.1194503846        -0.1510331981       -0.00420824857     -6.371950837e-13     -9.587092257e-26         -1.660866812         -1.765354172        -0.9809606478        -0.7941448315        0.03815135727         -0.329385017         0.3936758963       -0.04039219526 