ITEM: TIMESTEP
0
ITEM: NUMBER OF ENTRIES
594
ITEM: BOX BOUNDS pp pp pp
0 4.26
0 2.4768
0 30
ITEM: ENTRIES c_2[1] c_2[2] c_2[3] c_2[4] c_2[5] c_2[6] c_2[7] c_2[8] c_2[9] c_2[10] c_2[11] c_2[12] c_2[13] c_2[14] c_2[15] c_2[16] c_2[17] c_2[18] c_2[19] c_2[20] c_2[21] c_2[22] c_2[23] c_2[24] c_2[25] 
                   0                   94           0.61667291        -0.0150463314      -0.001640490212     -0.0003586332675     -5.340106388e-05     -1.156836901e-11     -4.621839203e-20     -6.260202497e-88    -3.794873597e-173      -0.003847065256      -0.002790253437      -0.003820602497      -0.001770776177      -0.003656593122     -0.0002084044371       -0.00306877124     -2.888951417e-07      -0.002632004021      7.874674399e-12      -0.001776615724      9.630308873e-31      -0.001768478754      2.858459614e-57 
                   1                    2          -5.01965365         0.1641944094        0.01790199314       0.003913616946      0.0005827437872      1.262408402e-10      5.043622515e-19      6.831500811e-87     4.141189054e-172        0.04212640493        0.03029640071        0.04184739517        0.01922287317        0.04011054037       0.002204737537        0.03380244499      2.614489941e-06        0.02914152123      3.653350897e-09        0.01906718819      1.161163533e-30        0.01621934139       1.70039193e-57 
                   1                    1          15.07484241      -0.002537846166     -0.0002766994614     -6.049023105e-05     -9.007091602e-06     -1.951222538e-12     -7.795599198e-21     -1.055900637e-88    -6.400766507e-174     -0.0006301901566     -0.0004549987035     -0.0006258625445     -0.0002871132092     -0.0005989851985     -3.413600165e-05     -0.0005024812916     -4.415673375e-08     -0.0004329482347     -6.999356339e-11     -0.0003079536508     -4.701859165e-32     -0.0003002116849     -1.082004106e-58 
                   0                   77          -3.64332729         0.4973040501        0.07612735617        0.03125719306       0.009717067665      3.701817959e-07        5.9402144e-13      1.219434482e-60     9.066595771e-121         0.3728108803         0.2974695207         0.3677260904          0.213663798          0.337536924        0.03875496904         0.2456924899      0.0003120140997          0.191644029      1.112057568e-05        0.08943427345       1.30527084e-14        0.05320199456      -8.76582072e-26 
                   1                    2          -2.54285365         0.5085434904        0.07784789086         0.0319636288       0.009936680599       3.78548179e-07       6.07446765e-13      1.246994605e-60     9.271507557e-121          0.382006001         0.3064953676         0.3768484991         0.2206867852         0.3463268148        0.03921204655         0.2551908278      0.0002872538944          0.202240785      7.868672987e-06        0.08108634862      3.276795778e-14        0.02763379745      9.638315726e-25 
                   1                    1          15.07484241        -0.0130230773      -0.001993574039     -0.0008185431856     -0.0002544642926     -9.694081804e-09     -1.555584985e-14     -3.193376268e-62    -2.374301547e-122      -0.008513724552      -0.007310920891      -0.008371687264      -0.005646191572      -0.007533956209      -0.001077162563      -0.005005599743     -9.702520227e-06      -0.003393586269     -1.875925152e-07      0.0007865549552     -1.136191053e-15       0.001829363102     -4.079614304e-26 
                   0                   78          -2.14929308         0.4580611988        0.09641938575        0.06236021639         0.0325811567      5.260449366e-05      7.819796185e-09      6.659584663e-41      1.581971068e-81         0.7502606343         0.7045119691         0.7282749683         0.5518050231         0.6347336102         0.1343853706         0.4064761114         0.0217569165         0.2859389898        0.01877555024        0.09251212782        0.01870919519        0.05196751551        0.01847919897 
                   1                    3          -2.51723417         0.7821161792         0.1646311929          0.106476895        0.05563066651      8.981949508e-05      1.335190392e-08       1.13709018e-40      2.701135067e-81          1.282392668          1.015432379          1.245190765         0.7658918295          1.080495548          0.231780222         0.6848095096        0.03682279674         0.4878456421        0.03106219887         0.2328050243        0.02452949187         0.2240116374        0.01856216746 
                   1                    1          15.06248453       -0.01758518298      -0.003701585171      -0.002394037781      -0.001250805796     -2.019511037e-06     -3.002056212e-10       -2.5566456e-42     -6.073260683e-83       -0.02023290877       -0.05509027492       -0.01908164658       -0.04926018488       -0.01736863704      -0.004992180171      -0.009251145846     -0.0008519058864        -0.0055304994      -0.001278187988        0.01000591708      -0.005001498996        0.02419194617      -0.008212597812 
                   0                   79          -1.51213407         0.2239444601        0.03539444761        0.01529793119       0.005043683081      2.920076695e-07      7.733828603e-13      8.381666819e-59     8.808958983e-117         0.1835927239          0.149098689         0.1811014741          0.108311311         0.1666143243        0.01869672263           0.12471714      0.0002355749074        0.09937830981       5.91757324e-05        0.02298837992      4.058194578e-05      -0.008792038756      2.752601589e-05 
                   1                    4          -3.71216614         0.7108670236         0.1123526146        0.04856023143          0.016010166      9.269201068e-07      2.454949641e-12      2.660592962e-58     2.796228337e-116         0.5816349034         0.4692035826          0.573370851         0.3405867363         0.5250099409        0.06231630359         0.3810876229      0.0008078323002         0.2938458583      0.0001792615074         0.1095607336      0.0001192097338        0.04894192658      8.250134611e-05 
                   1                    1          15.07265033       -0.01357997333      -0.002146316342     -0.0009276652673     -0.0003058485201     -1.770732065e-08     -4.689787195e-14     -5.082635747e-60    -5.341745358e-118      -0.009611966701      -0.007823130971      -0.009454983469      -0.005738307504       -0.00854991548      -0.001170319869      -0.006078063367     -1.550635021e-05      -0.004792526146     -4.657940683e-07      -0.001885413698     -4.727868739e-07     -0.0003102036684     -6.607012602e-07 
                   0                   68           0.04415749                   -0                   -0                   -0                   -0                   -0                   -0                   -0                   -0     -0.0002141180576       -0.01013829736     -4.221341583e-05       -0.01407464528       0.001541880455      -0.001859608325       0.008980145017       0.000453970292        0.01465330744      6.713110551e-05        0.04263720678     -0.0001053997534         0.0513968864     -1.771322521e-05 
                   1                    1          -3.72562898         0.8137120297         0.1388539779        0.06751915073        0.02547174737      3.870552671e-06      3.272168883e-11      3.518983774e-53     3.615938187e-106         0.8131358328         0.5523314311         0.7995168674          0.415558109         0.7270408504        0.09580624515         0.5381858417       0.006481076213         0.4325740715       0.003679279362         0.2363241752      0.0004438863024         0.1993435003      3.212867401e-05 
                   1                    1          14.97827694                   -0                   -0                   -0                   -0                   -0                   -0                   -0                   -0       0.006084407979       0.002528881048       0.006132026137      1.786062832e-05       0.006448963527     -0.0003969913376       0.007797922527      2.038334056e-05       0.008906892567       6.98959468e-06       0.009593274631     -1.777764649e-05       0.009648771776     -2.987667857e-06 
                   0                   69           0.61667291        -0.1332232794       -0.03380243913       -0.02695938727       -0.01789595656     -0.0001684374939     -2.159605463e-07     -5.235515738e-32     -2.558480172e-63        -0.3201070327        -0.2485936472        -0.3060356802        -0.1887331287        -0.2501291294       -0.08140152627        -0.1247898685       -0.02143667343       -0.06986660141       -0.02189925955       -0.06961125803      -0.003315547897         -0.273218441      -0.001341266421 
                   1                    2          -2.54285365         0.8774639268         0.2226369228         0.1775657372          0.117870213        0.00110939939      1.422405978e-06      3.448328414e-31      1.685121451e-62          2.138801975          1.831039607          2.053242805          1.426897972          1.692774772         0.5112156568          1.119679492         0.1148887224         0.8788574722        0.05687702469         0.4324902421       0.006492685469          0.223437951       0.004229813468 
                   1                    1          15.07484241       -0.02247060628      -0.005701415731      -0.004547206612      -0.003018488928     -2.841014443e-05     -3.642579907e-08     -8.830679843e-33     -4.315356962e-64       -0.04358904944       -0.03091373436       -0.04139245744       -0.02131794548         -0.034139455       -0.01129849428       -0.02227611823      -0.004563359324       -0.01675117577      -0.003912734493       -0.02288828962     -0.0005594745367       -0.05091594949     -0.0002262297629 
                   0                   70           2.11070712        -0.4389791326       -0.09444578245       -0.06273330048       -0.03378855278     -6.817471537e-05     -1.329933871e-08     -9.858250722e-40     -3.495640746e-79        -0.7620063655         -0.564643419        -0.7405993903        -0.4102061595        -0.6409792337        -0.1366861679         -0.462723084        -0.0209160476         -0.379146005      -0.005962504851        -0.2351999162     -1.154862054e-06        -0.2527303476     -1.419263578e-11 
                   1                    3          -2.51723417         0.7955613075         0.1711639679         0.1136914784        0.06123494998      0.0001235529474      2.410237414e-08      1.786609488e-39      6.335145149e-79          1.381952531           1.16782431          1.343171956         0.8804346952           1.15990006           0.25027181         0.8194722998        0.03549903087         0.6455136253       0.008288872512         0.2520126515     -7.985874986e-08         0.1379752349     -4.455069204e-12 
                   1                    1          15.06248453       -0.01788748466      -0.003848468776      -0.002556251236      -0.001376813098     -2.777977551e-06     -5.419203318e-10     -4.017031688e-41     -1.424400742e-80        -0.0232070717       -0.01815803555       -0.02234593379        -0.0287368843        -0.0184780869      -0.005372800382      -0.008509614766      -0.001243695072      0.0005152359325     -0.0005633179108        0.04927210918     -1.305459249e-07        0.08899493488     -1.583074275e-12 
                   0                   71           2.74786613        -0.2660238832       -0.03609725815        -0.0120658702      -0.002960703208     -2.123351756e-08     -4.698147894e-15     -1.578458245e-69    -4.010379587e-138        -0.1407762888        -0.1212306221        -0.1395181263       -0.07877446349        -0.1319350084       -0.00969989114        -0.1068341828     -7.191236844e-05       -0.08900980781     -3.734189026e-06       -0.04567616994      -1.88749608e-10       -0.03800302334     -1.448568804e-15 
                   1                    4          -3.71216614         0.4860710402        0.06595585179        0.02204640428       0.005409710099      3.879726076e-08      8.584318093e-15      2.884112628e-69     7.327648006e-138         0.2570314941          0.179788452         0.2547085763         0.1222627094          0.240696383        0.01792020163         0.1939755337      0.0001404701624         0.1603207303      9.206898235e-06        0.07593758552      4.788519048e-10        0.05611777614      3.304689271e-15 
                   1                    1          15.07265033      -0.009285606928      -0.001259980669     -0.0004211611626     -0.0001033438272     -7.411593853e-10     -1.639896167e-16     -5.509634188e-71     -1.39982952e-139      -0.004400476395       -0.02301273976      -0.004351653558       -0.01442542663      -0.004050863577      -0.000382764597      -0.002948506256     -1.883796661e-06      -0.002005963703     -4.988456893e-08       0.001707149723     -1.985095405e-12       0.003996080119      -2.79574003e-17 
                   0                   73           4.87667311        -0.2075155126       -0.02377409453      -0.005757248693     -0.0009690017348     -4.993479477e-10      -5.28275942e-18      -1.03287561e-82    -4.893569686e-164       -0.06333952496        -0.0466684813       -0.06286715818       -0.03047228451       -0.05993178127      -0.003727641532       -0.04934323875     -5.327329926e-06       -0.04162061758     -1.360500863e-08       -0.02552287125     -2.053160468e-28       -0.02075211465     -2.584261043e-53 
                   1                    2          -2.54285365         0.1619249012         0.0185509886       0.004492396323      0.0007561146066      3.896425192e-10      4.122151094e-18      8.059555596e-83     3.818465318e-164         0.0493745307        0.03646857985        0.04900125934        0.02381628047        0.04668614323       0.002941285386        0.03840002735      4.313470766e-06        0.03240439605      7.588032278e-09        0.02049586469     -5.965929288e-29        0.01744078998     -1.680049967e-53 
                   1                    1          15.07484241      -0.004146666991      -0.000475064499     -0.0001150438963     -1.936302235e-05     -9.978192117e-12     -1.055624413e-19     -2.063937844e-84    -9.778547942e-166      -0.001193295898      -0.000995773877      -0.001182893582     -0.0007152231162      -0.001118079149     -8.225730571e-05     -0.0008812098542     -1.118430447e-07     -0.0007040207794     -3.241250776e-10     -0.0002742615473     -7.409623059e-30     -4.214401844e-05      -1.06983859e-54 
                   0                   50          -5.77213427          0.124066873        0.01332958868       0.002824790376      0.0004050776057      6.694469873e-11      1.975767674e-19      2.945533034e-88     1.207091341e-174        0.03018308428         0.0220193723        0.02998734016        0.01414690921        0.02876288767       0.001552562884        0.02420797337      1.727114879e-06        0.02069642584      3.957365445e-09        0.01272924985      1.644876861e-21        0.01047688137      3.031749344e-36 
                   1                    4          -1.23536614        0.05254525584       0.005645396153       0.001196365552      0.0001715599492      2.835266366e-11      8.367843519e-20      1.247502924e-88     5.112317398e-175        0.01279646084       0.009304497377        0.01271395952       0.005977220505         0.0121970756      0.0006551540558         0.0102635338      6.811871927e-07       0.008767059997      1.698664175e-09       0.005268187111      3.433304769e-22       0.004146039051      6.930268222e-37 
                   1                    1          15.07265033      -0.002013071537     -0.0002162818722     -4.583419382e-05     -6.572666647e-06     -1.086224423e-12     -3.205820838e-21     -4.779332764e-90    -1.958589882e-176     -0.0004736927603     -0.0003705654905     -0.0004703517078       -0.00025133257     -0.0004494450746     -2.650680906e-05     -0.0003715028878     -2.870949045e-08     -0.0003109304704     -4.869129944e-11     -0.0001589670238     -2.348210567e-24     -9.552533618e-05     -8.476759729e-39 
                   0                   42          -4.21584271         0.7091767466         0.1220831632        0.06014235769        0.02302895094      3.894688774e-06       3.74652031e-11      1.123147344e-52     4.151769392e-105         0.7240882065         0.5706753361         0.7112019112         0.4112290514         0.6418882213        0.09133511338         0.4602803731       0.005874822619         0.3612569228       0.003128509294         0.1756451181      0.0001021965133         0.1363714185      1.371791965e-06 
                   1                    1          -1.24882898         0.4123213341        0.07098017947        0.03496727337        0.01338922606       2.26440486e-06      2.178258467e-11      6.530073264e-53     2.413873696e-105         0.4208349154         0.3210744354         0.4134514261         0.2256199261         0.3746094832         0.0514825608          0.277005534       0.003963571024         0.2217771553       0.001782696033         0.1330494706      1.279285544e-05         0.1277281808     -3.225241308e-07 
                   1                    1          14.97827694                   -0                   -0                   -0                   -0                   -0                   -0                   -0                   -0       0.006599136923       -0.04190611096       0.006677459953       -0.04146847771       0.007191786811     -0.0006455994406       0.009498137797        1.5168345e-05        0.01179010184     -4.592320521e-06        0.02294789562      -5.29746337e-06        0.03706958254     -1.272635295e-07 
                   0                   43          -3.64332729         0.8462819677         0.2075457252         0.1598111783          0.101904937      0.0007124571907      6.346879335e-07      8.449144775e-33      1.099275689e-65          1.919358393          1.640581495          1.847358344          1.281836924          1.527857815         0.4453840736          0.978568936        0.08334480895         0.7388889172        0.03610376281         0.3273160436       0.004469380898         0.2465812858       0.002769693113 
                   1                    2          -0.06605365         0.2969801394        0.07283265005        0.05608148089        0.03576082622      0.0002500178946       2.22726843e-07      2.965002551e-33      3.857615545e-66         0.6766637913         0.6000737455         0.6517292264         0.4751332721         0.5405082411         0.1545047266         0.3863949598        0.02541360684         0.3140470783       0.003574599367        0.02480738877        0.00117913576        -0.2146434879      0.0004280091299 
                   1                    1          15.07484241       -0.02216188563      -0.005435073416      -0.004185031929      -0.002668620678      -1.86573688e-05     -1.662079771e-08     -2.212607468e-34     -2.878712183e-67       -0.04004835148       -0.03815091341        -0.0380903404       -0.03261455705       -0.03024249337        -0.0113401145       -0.01485333195      -0.003227216081      -0.005413495271      -0.002037715359        0.01150674392     -0.0002112136882       0.009640980852     -0.0002282335158 
                   0                   44          -2.14929308         0.4987501257          0.212019577         0.2491259904         0.2578606383        0.06694798526       0.005066137004      1.644859573e-13      3.612932846e-27          2.848660917           2.85374334          2.575282901          2.534950917          1.716456896          1.371917775         0.6496587459         0.5820728904         0.2930987725         0.4190448144        -0.1039723401         0.1429150001        -0.2021884913         0.1215524169 
                   1                    3          -0.04043417         0.2884119007         0.1226044186         0.1440619194         0.1491128984        0.03871396654       0.002929591647      9.511718423e-14      2.089248254e-27           1.66460153          1.545372933          1.519642457          1.306967519         0.9939822278         0.7873547584         0.6240335082         0.2381824611         0.5477725613        0.08000506644         0.3211119934         0.0631827615         0.4046613033        0.05997879794 
                   1                    1          15.06248453       -0.01914724985      -0.008139530407      -0.009564062918      -0.009899390124      -0.002570164366     -0.0001944913615     -6.314692588e-15     -1.387021764e-28       -0.02008250355        0.01469060131      -0.001877931524        0.01537079996       -0.03081077463       -0.04945012554       -0.01382715584       -0.04763020608       -0.00594026002       -0.05481521224       -0.04591263598       -0.06407900374       -0.08330791774        -0.1092332369 
                   0                   45          -1.51213407         0.3711846996         0.1335461279         0.1423136904         0.1316649948        0.01471106139       0.000393965557      3.211399185e-18      2.235610543e-36          1.623341667          1.466741235          1.484363266          1.249374702          1.117033708         0.6497628767         0.5371644197         0.2715156328         0.2873787668         0.2317991402         0.0140157112         0.2377119284         0.1011069254         0.2726175599 
                   1                    4          -1.23536614         0.5875204154         0.2113801475         0.2252576644          0.208402643        0.02328503548      0.0006235785256      5.083082856e-18      3.538580217e-36          2.627370326          2.567845903          2.425140036          2.206622914          1.749065456          1.043350996         0.8099362226         0.4126443258         0.4659569666         0.3148003966        0.08646497552         0.1077175279      -0.002395050178       0.008768493361 
                   1                    1          15.07265033       -0.02250860913      -0.008098226024       -0.00862989028      -0.007984154269     -0.0008920775321     -2.389003842e-05     -1.947389779e-19     -1.355672363e-37       -0.04129429026       -0.01560958722       -0.02282609172      -0.006859731294       -0.04646367476       -0.03506278543       -0.03092262977       -0.03099008167        -0.0331809359        -0.0472654218       -0.03353435045        -0.1502218797       -0.04995574859        -0.2183734106 
                   0                   34           0.04415749                   -0                   -0                   -0                   -0                   -0                   -0                   -0                   -0        0.03249839607        -0.1690713887        0.05265063771        -0.2504179919        0.02488112704       -0.02281595378          0.263051264       -0.08414378967         0.4444443717         -0.176142093         0.7812455464         -0.123332895         0.6801490896       -0.02110311894 
                   1                    1          -1.24882898         0.5572350607         0.2433932895         0.2899488464         0.3048959963        0.08916197783       0.007813167168      8.180428237e-13      7.761829956e-26          3.220420959          3.252751429          2.944863381          2.850477183          1.975244947          1.613376341         0.9196145569         0.6768771086         0.5974365324         0.4715980434         0.1146259681         0.1874796446        0.04445861239         0.1559788652 
                   1                    1          14.97827694                   -0                   -0                   -0                   -0                   -0                   -0                   -0                   -0        0.09009756613        0.02545684706        0.09734598612       -0.01623442439         0.1026263855       -0.02091500751         0.1351960647       -0.02308799275         0.1660824642       -0.03429744185          0.158291377       -0.02193077861         0.1223911736      -0.003604318352 
                   0                   35           0.61667291       -0.08758675734       -0.07047927865        -0.1017708637        -0.1335637919        -0.2083342663         -0.144136247     -0.0002202186992     -1.875584319e-08         -1.091509427         -1.242416331        -0.8804376666         -1.177975333        -0.3091544635        -0.9422455023        0.01299001772        -0.6325549368       -0.05866517522        -0.5400357564          -0.67454184       -0.01658340315       -0.07219191899         0.3282564856 
                   1                    2          -0.06605365         0.1979674622         0.1593003823         0.2300270067         0.3018867889         0.4708863215         0.3257831195      0.0004977480425      4.239278621e-08           2.48943592          2.776890439          2.074815563           2.67883378         0.7984424726          2.047286877        0.03955024158         0.8899111047       -0.09311482665         0.4780956184        -0.4091446879         0.1928078451        -0.1233061051         0.2502206708 
                   1                    1          15.07484241       -0.01477315037       -0.01188765303       -0.01716556611        -0.0225280401       -0.03513948382       -0.02431128307     -3.714401648e-05     -3.163524946e-09       -0.05564864912        -0.0158417443         0.0152050646        0.04716752964        -0.0237483756        -0.1346644353        -0.2395018506        -0.2740149285        -0.3444877281        -0.2662070751        -0.4388647147        -0.2896735347        -0.4114266553         -0.340494845 
                   0                   36           2.11070712        -0.4603412311        -0.2059273634        -0.2481882074        -0.2644992284       -0.08555254056      -0.008489131033     -2.397175657e-12     -7.858874527e-25         -2.862807736         -2.768926316         -2.598191154         -2.407781398         -1.687914678         -1.386101453        -0.8554705033        -0.5111984859        -0.5871927783        -0.2766723341        -0.2736084509        -0.0966065421        -0.3219121898       -0.06933776845 
                   1                    3          -0.04043417         0.2825478751         0.1263939335         0.1523327607         0.1623441263        0.05251037037       0.005210452101       1.47133657e-12      4.823613763e-25          1.719534461          1.790265437           1.54334648           1.63620949           1.02957945         0.8628816036         0.2179195979         0.3670346047       -0.03090606115         0.3297223004        -0.3286586093         0.1359415046        -0.4688023396         0.1263927438 
                   1                    1          15.06248453       -0.01875794565      -0.008391110832       -0.01011315214       -0.01077779225      -0.003486087706     -0.0003459143953     -9.767991148e-14     -3.202327563e-26       -0.03619990657       -0.01408925977       -0.01656923886      -0.008121173426       -0.03020321663       -0.05447038722       -0.01210268794       -0.04828877638       -0.00485598654       -0.05437575315       -0.06083613371       -0.06892335384       -0.09750364508        -0.1080769867 
                   0                   37           2.74786613        -0.6406673947        -0.1721693483        -0.1452915711        -0.1028812639      -0.001563032382     -3.604265644e-06     -9.408314058e-29     -1.590865041e-57           -1.7489815         -1.547856291         -1.674047854         -1.238821555         -1.355526815        -0.4498429407        -0.8889271121       -0.09713957177        -0.6784812646        -0.0348643813       -0.09741861204      -0.004433103271         0.1693995349      -0.001527963288 
                   1                    4          -1.23536614         0.5837092715          0.156862743         0.1323745173        0.09373467124       0.001424071992      3.283830722e-06       8.57187394e-29      1.449430207e-57          1.590768904          1.366056345          1.522123464          1.081897656          1.225656415         0.4171369068         0.7215014812        0.08554165861          0.507485015        0.04353679075         0.3502648787       0.006285116423         0.4268676016       0.003552564893 
                   1                    1          15.07265033       -0.02236259965      -0.006009599115       -0.00507142593      -0.003591087257     -5.455789961e-05     -1.258074787e-07      -3.28398733e-30     -5.552940312e-59       -0.04722068765       -0.04654399747       -0.04450220691        -0.0408228138       -0.03437705459       -0.01502405345       -0.01502225951      -0.005164368534      -0.001243548324      -0.003100905953        0.01567683576     -0.0005728676739         0.0125682493     -0.0004928871482 
                   0                   38           4.30415769        -0.7091767466        -0.1220831632       -0.06014235769       -0.02302895094     -3.894688774e-06      -3.74652031e-11     -1.123147344e-52    -4.151769392e-105        -0.7255793641        -0.5564410914        -0.7132941921         -0.394556267        -0.6456965899       -0.08849761136        -0.4666188003      -0.003987361439        -0.3657503689       -0.00133973102        -0.2098885075     -7.198778483e-05        -0.1861320705     -2.023913655e-06 
                   1                    1          -1.24882898         0.4123213341        0.07098017947        0.03496727337        0.01338922606       2.26440486e-06      2.178258467e-11      6.530073264e-53     2.413873696e-105         0.4221985468         0.3545184847          0.414826652         0.2628905476         0.3734624741        0.05387421097         0.2625971317       0.001665721501         0.2021845501      0.0006220802024        0.07724416952      5.177112645e-05        0.03968723526      2.179058326e-06 