ITEM: TIMESTEP
0
ITEM: NUMBER OF ATOMS
4
ITEM: BOX BOUNDS pp pp pp
0.0000000000000000e+00 4.2600002000000003e+00
0.0000000000000000e+00 2.4767999999999999e+00
0.0000000000000000e+00 3.0000000000000000e+01
ITEM: ATOMS id type c_1[1] c_1[2] c_1[3] c_1[4] c_1[5] c_1[6] c_1[7] c_1[8] c_1[9] c_1[10] c_1[11] c_1[12] c_1[13] c_1[14] c_1[15] c_1[16] c_1[17] c_1[18] c_1[19] c_1[20] 
1 1          13.96526003          12.60583451          6.109803806          1.179947772          0.551307653         0.3549235311      0.0001351999731      9.858923129e-09          49.37864202          45.82020677          41.33936676          23.38745573          21.56940349          4.222032982          15.38554306          2.536174835          5.116523559         0.9729758193          3.290420957         0.8641798226 
2 1           13.9625554          12.60299632          6.119876722          1.211857023         0.5785414445         0.3777908162      0.0001952264657      2.046766533e-08          49.37709701           45.9129914          41.27680778          23.50009515          21.44781511          4.299106139          15.26035724          2.611687659          5.019681181         0.9902590987          3.199707618         0.8202495021 
3 1          13.96286626          12.60337298          6.118672521          1.205415275         0.5707538643          0.370119912      0.0001540169032      1.449215819e-08          49.38799752          45.87591276           41.2886218          23.48166519          21.45743657          4.282625902          15.27400753           2.59601889          5.051270702         0.9848371361          3.224101827         0.8486974411 
4 1          13.96512443          12.60602511          6.109101667          1.174280127         0.5439319148         0.3474580591       9.39904108e-05      3.883415996e-09          49.38183838           45.8502947          41.34794398          23.38194452          21.57552194          4.214432412          15.39122699            2.5320822          5.120177611         0.9741904758          3.290207301         0.8708564926 
