ITEM: TIMESTEP
0
ITEM: NUMBER OF ENTRIES
594
ITEM: BOX BOUNDS pp pp pp
0 4.26
0 2.4768
0 30
ITEM: ENTRIES c_2[1] c_2[2] c_2[3] c_2[4] c_2[5] c_2[6] c_2[7] c_2[8] c_2[9] c_2[10] c_2[11] c_2[12] c_2[13] c_2[14] c_2[15] c_2[16] c_2[17] c_2[18] c_2[19] c_2[20] c_2[21] c_2[22] c_2[23] c_2[24] c_2[25] 
                   0                   99           0.77333552        -0.0264991561      -0.002970288457     -0.0006878870155     -0.0001097748125     -3.889625275e-11     -2.697789115e-19     -2.188278547e-85    -2.031992146e-168      -0.007403927116      -0.005503389201      -0.007346964657      -0.003597709655       -0.00699470212     -0.0004478461068      -0.005741756361     -8.016936856e-07      -0.004826524107     -4.878374913e-10      -0.003229918234      9.171965618e-28      -0.003111033068      2.652601677e-51 
                   1                    2          -4.97214802         0.2189076099        0.02453733789        0.00568258483      0.0009068417781      3.213191278e-10      2.228624056e-18      1.807721064e-84        1.678614e-167        0.06175122291        0.04540331263        0.06131227167        0.02947720157        0.05858203725       0.003466395064        0.04868347504      4.900321689e-06        0.04137836475      1.359623446e-08        0.02555520943      1.101854333e-27        0.02073510239      1.581484499e-51 
                   1                    1           15.0402935       -0.00249356133      -0.000279503106      -6.47299278e-05      -1.03297715e-05     -3.660123793e-12     -2.538610131e-20     -2.059162466e-86    -1.912097509e-169     -0.0007231192113     -0.0005330819147     -0.0007182417956     -0.0003437282768     -0.0006878013541     -3.861790572e-05     -0.0005754887703     -5.657497268e-08     -0.0004903701327     -1.903766032e-10     -0.0003301370085     -3.696545721e-29      -0.000300509308     -8.412391832e-53 
                   0                   77          -3.48666468         0.5370715577        0.08768746478        0.03987659541        0.01393477733      1.222584777e-06      5.333966994e-12      3.017992647e-56     4.424802555e-112         0.4771368916         0.3824440886         0.4695945212         0.2775073495         0.4258019172        0.05652709926         0.3012117563      0.0007988117234         0.2316163269      3.673747754e-05         0.1172756655      1.085875599e-15        0.09024445015     -2.119819963e-23 
                   1                    2          -2.49534802          0.560951261        0.09158629466        0.04164962035         0.0145543565      1.276944315e-06      5.571130081e-12       3.15218104e-56     4.621541649e-112         0.5014088521         0.4076598951          0.493840305          0.297914208          0.450003542        0.05661820835         0.3262298513      0.0007997655322         0.2555561748      3.589916611e-05        0.08496119973      4.705398542e-13        0.01278925497      5.283861394e-23 
                   1                    1           15.0402935        -0.0106997167      -0.001746938592      -0.000794434685     -0.0002776132296     -2.435673714e-08     -1.062650496e-13     -6.012544484e-58    -8.815237578e-114        -0.0106206901      -0.007180778735       -0.01052117626      -0.004208890547      -0.009961888444     -0.0007278669346      -0.008490511681     -1.851715839e-05      -0.007719400687     -7.623609862e-07      -0.008934944221      -1.58079618e-14       -0.00970441356      -2.09927535e-24 
                   0                   78           -2.2206207         0.0063567159      0.0006463871364      0.0001215338733      1.504629394e-05      8.286842871e-13      6.958912412e-22      1.514050223e-94     1.884704951e-185       0.001227559898      0.0009242833268       0.001219434335      0.0006130334434        0.00116844615      6.460452028e-05      0.0009760064321      6.033381045e-08      0.0008229897225      1.510360566e-10      0.0003954677986      4.702420714e-29      0.0002316563352      4.273394887e-52 
                   1                    3          -4.89546822        0.01715777481       0.001744700424       0.000328039016      4.061231101e-05      2.236749071e-12      1.878319779e-21      4.086659397e-94     5.087114737e-185       0.003314355233       0.002495464439       0.003292406781       0.001654495121       0.003154684052      0.0001745027295       0.002635056123      1.628130213e-07       0.002222428832      4.001026459e-10       0.001080031685      9.591960675e-29      0.0006428701615        6.6097177e-52 
                   1                    1          15.03843378     -0.0001926561585     -1.959037726e-05     -3.683387699e-06     -4.560155331e-07     -2.511534791e-14     -2.109072285e-23     -4.588707506e-96    -5.712069275e-187     -3.734360627e-05     -2.764205603e-05      -3.71003345e-05     -1.809135176e-05     -3.557588212e-05     -1.932162843e-06     -2.985917223e-05     -1.884766387e-09      -2.53645755e-05     -4.416457703e-12     -1.310838168e-05     -5.790341506e-31     -8.427269802e-06       4.00303297e-55 
                   0                   79          -1.51657817         0.2291107391        0.03678559268        0.01629854974       0.005528331456      3.919760559e-07      1.323950116e-12      9.851089679e-58      1.14717351e-114         0.1945745361         0.1597854696         0.1916225531         0.1179727629         0.1743943288        0.02220886698         0.1251983365      0.0002113311213        0.09671037949      2.302538332e-06        0.01952057227      3.733199597e-14      -0.008149721165      2.704705183e-24 
                   1                    4          -3.71840133         0.7256175227         0.1165037952        0.05161920096        0.01750880029      1.241428908e-06      4.193087617e-12      3.119942486e-57     3.633217733e-114         0.6158270028         0.5006773796         0.6062793517         0.3673641799         0.5503671043        0.07201692037         0.3885605121      0.0007233419132         0.2970182984      1.852902104e-05         0.1110195707      4.997473743e-14        0.04620215804      1.280420002e-24 
                   1                    1          14.90241722         0.0100556398        0.00161451476      0.0007153411756      0.0002426377307      1.720377685e-08       5.81079941e-14       4.32363013e-59     5.034929243e-116        0.01151181596       0.008762102292        0.01141111714       0.005874703329        0.01082196824      0.0007590890589       0.008986226762      1.208922153e-05       0.007650512589      3.293904635e-07       0.004127981951      2.953935163e-16         0.0021978403     -2.464632694e-26 
                   0                   68           0.02901299                   -0                   -0                   -0                   -0                   -0                   -0                   -0                   -0       0.001003147376      -0.006922400091       0.001335237965       -0.01095722845       0.003836716952      -0.003041272636         0.0123662565      0.0004501352413        0.01633842509      0.0001141390886        0.03522270607     -1.629403586e-05        0.04232994659     -1.278955125e-06 
                   1                    1          -3.77695349         0.8137120297         0.1388539779        0.06751915073        0.02547174737      3.870552671e-06      3.272168883e-11      3.518983774e-53     3.615938187e-106         0.8123126974         0.5583749363         0.7984648626          0.426063059          0.722220556        0.09981051685         0.5199392359       0.004460073149         0.4068547273       0.001826612525         0.2145905576      0.0001048967461         0.1821929149      3.082877397e-06 
                   1                    1          14.97025301                   -0                   -0                   -0                   -0                   -0                   -0                   -0                   -0       0.001555122995      0.0003886789789       0.001590659668     -0.0004092080115       0.001821589074     -0.0002899177542       0.002507655717      2.445033964e-05        0.00292202397      9.812748961e-06       0.003795726493     -1.533263081e-06       0.004201814339     -1.203492304e-07 
                   0                   69           0.77333552        -0.1747023548       -0.04544100283       -0.03715346435       -0.02537370275     -0.0002947637511     -4.891309934e-07     -9.266309415e-31     -5.909948637e-61        -0.4347051545        -0.3672122355        -0.4149746414        -0.2941062036        -0.3279477198        -0.1219450651          -0.14253389       -0.02403249393       -0.06583908429       -0.01958480855        -0.1391736591      -0.002477798445        -0.3215699541      -0.002048613625 
                   1                    2          -2.49534802         0.8618657441         0.2241758204         0.1832905929         0.1251770489       0.001454169178      2.413048457e-06      4.571383522e-30      2.915577346e-60          2.204984238          1.910444806          2.116537166          1.506694719          1.733865321         0.5377263486          1.121312211         0.1090417566         0.8542901891        0.04533389462         0.3053954479       0.006753483939        0.09279308073       0.003878449293 
                   1                    1           15.0402935       -0.01643943054      -0.004275982488      -0.003496128013      -0.002387656563     -2.773716599e-05     -4.602705558e-08     -8.719564782e-32     -5.561241018e-62       -0.04749179255       -0.03642850685       -0.04597819209       -0.02572880657        -0.0399589957      -0.008733648787       -0.02855907033      -0.002376714969        -0.0228570542      -0.001896311942       -0.02522777566     -0.0002338501211       -0.03704097725     -0.0001927740475 
                   0                   70            2.0393795       -0.02426369972      -0.002536119632     -0.0005065692473     -6.758124564e-05     -6.578325645e-12      -1.07038197e-20     -2.309283884e-91      -5.7705067e-180      -0.005322725587      -0.003948578505       -0.00529100218       -0.00256315311      -0.005091556504     -0.0002525956705      -0.004335447812     -1.818331688e-07      -0.003736695781      -4.89175434e-10      -0.002062848463     -8.149418302e-28      -0.001318385286     -3.438769301e-50 
                   1                    3          -4.89546822        0.07328612356       0.007660100434       0.001530042693      0.0002041225195      1.986918696e-11      3.232983686e-20       6.97496532e-91     1.742924912e-179        0.01608949813         0.0119679921        0.01599411403       0.007784278915        0.01539461603      0.0007593127286        0.01311901932       6.27094473e-07        0.01130087827      1.606695426e-09        0.00615867914      1.128389916e-27        0.00391903018      2.432855309e-50 
                   1                    1          15.03843378     -0.0008228935975     -8.601147526e-05     -1.718009187e-05      -2.29199071e-06     -2.231012631e-13     -3.630157316e-22     -7.831843227e-93    -1.957044092e-181     -0.0001824105015     -0.0001377770434      -0.000181314216     -9.099170933e-05     -0.0001744148639     -8.735958284e-06     -0.0001480172234     -7.248581378e-09      -0.000126502711     -1.868064056e-11     -6.101333151e-05      -1.79977482e-30     -3.179872994e-05      3.740182816e-52 
                   0                   71           2.74342203        -0.2770896626       -0.03804224704        -0.0129838992      -0.003263609103      -2.77143963e-08      -7.48195324e-15     -1.200469339e-68    -2.142894628e-136        -0.1523864689        -0.1157738791        -0.1510335349       -0.07807021545        -0.1428575427       -0.01045155433        -0.1156602005     -6.914508551e-05       -0.09642170841     -3.025287992e-06       -0.04826769258     -2.058032676e-11       -0.03451093812     -1.947980809e-17 
                   1                    4          -3.71840133         0.4996915109        0.06860374264        0.02341460215       0.005885451477      4.997894339e-08      1.349263081e-14      2.164874475e-68     3.864403473e-136          0.275361659           0.20384139         0.2729475718         0.1354840341         0.2583481313        0.01865965758         0.2094999252      0.0001299131051         0.1746162429      7.314902967e-06        0.09030301325      5.642371976e-11        0.07185998402        4.7686337e-17 
                   1                    1          14.90241722       0.006924747113      0.0009507137072      0.0003244805947      8.156084751e-05      6.926104135e-10       1.86981476e-16      3.000092646e-70     5.355307467e-138       0.004892095149      -0.006206376807       0.004880820817      -0.007208031049       0.004825574685      7.454557932e-05        0.00482268606      2.659259983e-06       0.005030707199      1.504949838e-07       0.007840217096      1.166668134e-12        0.01204238176      9.110388827e-19 
                   0                   73           5.03333572        -0.1704622614        -0.0190199157      -0.004363413496     -0.0006884992065      -2.25232048e-10     -1.428135392e-18     -5.920966979e-85    -2.403542812e-168       -0.04750129852        -0.0350585516       -0.04717438807        -0.0227989978       -0.04513698447      -0.002585566605       -0.03767318787     -3.609299622e-06       -0.03205062984      -1.08978725e-08       -0.01926537757      -1.12663641e-27       -0.01512812318     -1.763606672e-51 
                   1                    2          -2.49534802         0.1250791616        0.01395613956       0.003201718065      0.0005051962986      1.652672885e-10      1.047915099e-18      4.344595569e-85     1.763634469e-168        0.03474193864        0.02563050467        0.03449991908        0.01666307974        0.03299411325       0.001911689248         0.0275062416      2.871705168e-06         0.0233737225      6.616406697e-09        0.01421057859     -1.909589876e-28        0.01159287906     -9.851368632e-52 
                   1                    1           15.0402935      -0.002385789439     -0.0002662026986     -6.107032576e-05      -9.63623339e-06     -3.152347252e-12     -1.998817982e-20     -8.286984091e-87    -3.363997995e-170     -0.0006864982195     -0.0004515817015     -0.0006820840787     -0.0002647623432     -0.0006545395258     -3.494533904e-05     -0.0005532095262     -4.959819997e-08     -0.0004774491746     -1.754022789e-10     -0.0003685733391     -3.014577663e-29     -0.0004122516138     -5.689455652e-53 
                   0                   50          -5.77657837         0.1425137152        0.01545841008       0.003342943048      0.0004912863708      9.688500874e-11       3.48457399e-19      2.186374912e-87     5.169744847e-173        0.03672072227        0.02654457157        0.03648145624        0.01692221756        0.03498760488        0.00189498473        0.02947306607      2.284117648e-06        0.02526216269      4.023203796e-09        0.01598947163      8.454554319e-30        0.01372754711      8.156476267e-56 
                   1                    4          -1.24160133        0.05936233925       0.006439011027       0.001392461905      0.0002046393091      4.035626151e-11      1.451456536e-19      9.107076404e-88     2.153393778e-173        0.01531150082        0.01108357763        0.01521211326       0.007076392161        0.01459070868      0.0007880065865        0.01228761421       8.82972111e-07        0.01053266046        2.0417895e-09       0.006629305529       1.68630373e-29       0.005516852962      7.598327695e-55 
                   1                    1          14.90241722       0.001665210287      0.0001806247451      3.906082404e-05      5.740465874e-06      1.132058855e-12      4.071571952e-21      2.554683239e-89     6.040620224e-175      0.0004690742639      0.0002049129601      0.0004666465422      6.252793777e-05      0.0004516328454      1.908705325e-05      0.0003995479816      2.379402949e-08      0.0003668748781      4.468935552e-11      0.0004022827005      9.878775731e-32      0.0005340756089      9.530484956e-58 
                   0                   42          -4.23098721         0.7091767466         0.1220831632        0.06014235769        0.02302895094      3.894688774e-06       3.74652031e-11      1.123147344e-52     4.151769392e-105         0.7254302789         0.5869483464         0.7131686712          0.426811401         0.6460443249        0.08801116374         0.4694408271       0.004207272375         0.3702480007       0.001838703269         0.1619092523      0.0001280200806        0.09946684647      4.811159973e-06 
                   1                    1          -1.30015349         0.4123213341        0.07098017947        0.03496727337        0.01338922606       2.26440486e-06      2.178258467e-11      6.530073264e-53     2.413873696e-105         0.4240247581          0.310648677         0.4171625871         0.2111433816         0.3803343213        0.04854470783         0.2854121434       0.002981462137         0.2310806787       0.001194595931         0.1562445585      4.707888516e-05         0.1681101666      4.844567719e-07 
                   1                    1          14.97025301                   -0                   -0                   -0                   -0                   -0                   -0                   -0                   -0       0.001519600168      -0.008604601372       0.001505527328       -0.01018670029       0.001441049614      8.868793529e-05       0.001682743924      6.474779866e-06       0.002890654227      8.271429894e-06        0.01631831307     -2.256955033e-06        0.02750833195     -1.908335758e-07 
                   0                   43          -3.48666468         0.8283319397         0.2181133502         0.1804913756         0.1249727752       0.001607685664      3.023116947e-06      1.551783152e-29      3.438790155e-59          2.151763658          1.845120928           2.05842618          1.452359087          1.667262662         0.5556298984          1.055863474         0.1267668466         0.7952909224        0.06151428385         0.3859246368        0.00854621911         0.3601542592       0.003435339112 
                   1                    2          -0.01854802         0.2816008452        0.07415010917        0.06136009186        0.04248591347      0.0005465509901      1.027742921e-06      5.275462968e-30      1.169055746e-59         0.7383813549         0.6832661781           0.70774583         0.5509406555         0.5804843861         0.1808614518         0.4229747995        0.04234192504         0.3509456918        0.01053908523        0.03172331946      0.0008814321039        -0.3158527651     -0.0003353249006 
                   1                    1           15.0402935       -0.01650230208      -0.004345326095       -0.00359580871      -0.002489748842     -3.202884401e-05     -6.022753284e-08     -3.091513574e-31     -6.850871157e-61       -0.04961672969       -0.03848084901       -0.04833839999       -0.02480401171       -0.04519739911       -0.00553383322       -0.04649427618      -0.003559566068        -0.0494606903      -0.002470100884       -0.02971841294     -0.0004687429373       0.004739631424     -0.0003202267841 
                   0                   44           -2.2206207         0.4823899131          0.105126018        0.07090901893        0.03886830964      8.919925117e-05      2.036037292e-08      5.271648866e-39      8.918390655e-78         0.8451345105         0.7350898649         0.8186624923         0.5744844062         0.7014256703         0.1665989001         0.4202712203        0.02270610949         0.2886020255        0.01872409306         0.1198090805        0.01838816394        0.09314553337        0.01863010711 
                   1                    3          -2.41866822         0.7709448734         0.1680100733         0.1133252233        0.06211847146      0.0001425562673      3.253949698e-08      8.425032442e-39      1.425317439e-77          1.357676615          1.122773357           1.31613826         0.8608033476          1.130426031         0.2610298598         0.7004259979        0.03701739004         0.4986459416        0.02973962154         0.2354482664        0.02644551502         0.2180292148        0.02388198545 
                   1                    1          15.03843378       -0.01462003164      -0.003186106649      -0.002149074995      -0.001178001242     -2.703406184e-06     -6.170719745e-10     -1.597704908e-40     -2.702941127e-79       -0.02668326115        0.08081755565       -0.02587476003         0.0855723071       -0.02655909384      -0.003157969655       -0.02344026671     -0.0006864619463       -0.02491046348     -0.0008678670655       -0.05995473562      -0.003520193187        -0.1060566081      -0.006492338177 
                   0                   45          -1.51657817         0.3672528572         0.1346350091         0.1452327637         0.1362582768         0.0169082238      0.0005152421367      1.177322425e-17      2.971633009e-35          1.575152002          1.596451455          1.437397564          1.384557852          1.107017145         0.6879293139         0.4415602781         0.2625789122         0.2038849148         0.2185488381        0.01628738743         0.1877119113        0.02615972732         0.2411558736 
                   1                    4          -1.24160133         0.5746076011         0.2106513213         0.2272326771         0.2131911026        0.02645478102      0.0008061531513      1.842050786e-17      4.649447597e-35          2.652126294          2.534077362          2.436551548          2.181615367          1.733834394          1.074269899         0.7955271941         0.4162114257         0.4636325684         0.3278875401        0.08133834777         0.2034494747        0.04967760233         0.1457238959 
                   1                    1          14.90241722        0.01611867895       0.005909112605       0.006374246639       0.005980357607      0.0007420996889       2.26139087e-05      5.167252431e-19      1.304245767e-36         0.1746251884       -0.05958048916         0.1713534761       -0.08486225042         0.1037252742        0.01782764453        0.09619564568        0.00903022128        0.09596990945        0.00368456105          0.105354839       -0.03030745508            0.1671111       -0.06645418877 
                   0                   34           0.02901299                   -0                   -0                   -0                   -0                   -0                   -0                   -0                   -0        0.03771421911        -0.1181700193        0.05639337884        -0.1963857139        0.06287745987       -0.04879971581          0.335373502       -0.07545648308         0.4501404952        -0.1532803998          0.495050594       -0.04864092698         0.5331744706      -0.003770790943 
                   1                    1          -1.30015349         0.5572350607         0.2433932895         0.2899488464         0.3048959963        0.08916197783       0.007813167168      8.180428237e-13      7.761829956e-26          3.232319519          3.268356237          2.966731245          2.875768242          1.986443375          1.601933289         0.8603843151         0.6281345279         0.5045676578         0.4147303546        0.06285382157         0.1644281591        0.02826724881         0.1501481052 
                   1                    1          14.97025301                   -0                   -0                   -0                   -0                   -0                   -0                   -0                   -0        0.02393431424       0.002567292546        0.02641869224       -0.01105896015        0.02862727333      -0.007549374762        0.05124823329      -0.009140564623        0.06101219905         -0.015646712        0.05199851046      -0.004837731969        0.05187795185     -0.0003671328054 
                   0                   35           0.77333552        -0.1132942765        -0.0917473035        -0.1326302304        -0.1742889714        -0.2745376319        -0.1922549663     -0.0003235828003     -3.110215475e-08         -1.291116431         -1.454832065         -1.048350123         -1.436353383        -0.3481104248         -1.260490868         0.1286405703        -0.5410878854         0.2099529074        -0.2894169526         0.2742188799       -0.08791111056       -0.02530816314        -0.1525406693 
                   1                    2          -0.01854802         0.1819220756         0.1473230634         0.2129707478         0.2798641944         0.4408382962         0.3087130577      0.0005195924849      4.994222764e-08          2.357138307          2.656278987          1.963869855          2.529468851         0.7975468643          1.835166971          0.125682983         0.8842554682        0.06846422511         0.5713222611        0.04890836031         0.2255742457        -0.1209624955         0.1526529799 
                   1                    1           15.0402935       -0.01066095183      -0.008633389202       -0.01248045834       -0.01640053131       -0.02583389524       -0.01809112516     -3.044902844e-05     -2.926701895e-09         0.1988878401        0.06878182555         0.1923391259         0.1382411527        -0.1128197679       -0.06321019588        -0.2402573518        -0.1256223319         -0.301578121        -0.1245592142        -0.4040948899        -0.1269211216        -0.4372216184        -0.1886438648 
                   0                   36            2.0393795        -0.4435282175        -0.1008943552        -0.0715426378       -0.04151933154     -0.0001449394398     -5.521625693e-08     -8.451611434e-37      -2.33752007e-73        -0.8658751591         -0.774206412        -0.8392556548        -0.6015919223        -0.7148865903        -0.1704117232        -0.4950761349       -0.02507915714        -0.3901689733       -0.00588313229         -0.152521686     -4.605073158e-05       -0.05293547235      -2.22837683e-06 
                   1                    3          -2.41866822         0.7932004069         0.1804382234         0.1279459731        0.07425266166      0.0002592079107      9.874807448e-08       1.51147579e-36      4.180392132e-73           1.55902982          1.234402895          1.512476084         0.9122358122          1.295761023         0.2972705821         0.9166073952        0.04421835497          0.733764322        0.01058253955          0.380723697      8.774054027e-05         0.3420905483      2.981874128e-06 
                   1                    1          15.03843378       -0.01504208075      -0.003421791396      -0.002426339729      -0.001408111397     -4.915562689e-06     -1.872637101e-09     -2.866329957e-38     -7.927605116e-75       -0.03286976949       -0.07137771709        -0.0320141042        -0.0682617912       -0.02799655623      -0.005500062823       -0.01855834875     -0.0009542769125       -0.01099149636     -0.0002634627479        0.03274175443     -1.565571802e-06        0.08145385106     -7.557450551e-08 
                   0                   37           2.74342203        -0.6445838221        -0.1746953353        -0.1486096902        -0.1062005117      -0.001727170623     -4.329759367e-06      -2.19995764e-28     -8.549956867e-57         -1.791356365         -1.553677068         -1.716874613         -1.222968422         -1.399619014        -0.4477547676        -0.9418898767       -0.09536157703        -0.7470044642       -0.03434217071        -0.2664421976      -0.004194048492       0.005706012657      -0.002466633282 
                   1                    4          -1.24160133          0.574255174         0.1556348403         0.1323953233        0.09461328572       0.001538724108      3.857352036e-06      1.959926722e-28      7.617096179e-57          1.598342922          1.380400394          1.531760084          1.091786667          1.246434319         0.4025593842         0.7651842256        0.08510974655          0.563489129        0.04614223426         0.2649081593       0.005305662681         0.2526437786        0.00349130455 
                   1                    1          14.90241722         0.0161087928       0.004365810719       0.003713904422       0.002654056741      4.316371702e-05      1.082050063e-07      5.497913626e-30      2.136719522e-58        0.06916638686        0.03034580342        0.06828851227       0.001897631225        0.06700804949       0.002952790909        0.08011658283       0.002686500622         0.1012150082       0.002264561813         0.1706153242      0.0001647081189         0.1411710591      3.808951426e-05 
                   0                   38           4.28901319        -0.7091767466        -0.1220831632       -0.06014235769       -0.02302895094     -3.894688774e-06      -3.74652031e-11     -1.123147344e-52    -4.151769392e-105        -0.7333079208        -0.5774414406        -0.7216655652        -0.4095390551        -0.6574616304       -0.08400849204        -0.4875303007      -0.003530198172        -0.3909036508      -0.001332964189        -0.2128554335      -0.000102752098        -0.1762741275     -4.357136329e-06 
                   1                    1          -1.30015349         0.4123213341        0.07098017947        0.03496727337        0.01338922606       2.26440486e-06      2.178258467e-11      6.530073264e-53     2.413873696e-105         0.4256750814         0.3177193869         0.4185758148          0.226275787         0.3785671549        0.05205283583          0.270218927       0.001484469088         0.2101160563      0.0006403811224        0.08823709112      7.175082852e-05        0.06907497934      4.404385045e-06 