ITEM: TIMESTEP
0
ITEM: NUMBER OF ENTRIES
588
ITEM: BOX BOUNDS pp pp pp
0 4.26
0 2.4768
0 30
ITEM: ENTRIES c_2[1] c_2[2] c_2[3] c_2[4] c_2[5] c_2[6] c_2[7] c_2[8] c_2[9] c_2[10] c_2[11] c_2[12] c_2[13] c_2[14] c_2[15] c_2[16] c_2[17] c_2[18] c_2[19] c_2[20] c_2[21] c_2[22] c_2[23] 
                   0                   98           5.06464242       -0.02686531005      -0.002968219028     -0.0001027222845     -2.824421013e-11     -3.079283125e-16     -1.473718479e-19     -1.431503262e-86    -9.736714198e-171       -0.00720337883      -0.005986600416      -0.007013549596      -0.001389680601      -0.005660672989     -5.260334154e-07      -0.004802394285     -1.378089411e-10      -0.003030558354      1.765887898e-26      -0.002609055734      4.912528917e-45 
                   1                    2          -4.95501545         0.1898384842        0.02097434201      0.0007258670289      1.995822133e-10      2.175915483e-15      1.041374478e-18      1.011543917e-85     6.880259568e-170        0.05095623022        0.04220871239        0.04964103068       0.009853358768        0.04005421626      3.286571984e-06        0.03383208072      5.962321041e-09        0.01990015671      5.250720523e-26        0.01545615269      1.479380319e-44 
                   1                    1          14.93786723       0.002718447134      0.0003003481627      1.039426306e-05      2.857975283e-12       3.11586517e-17      1.491226332e-20      1.448509596e-87     9.852386875e-172       0.000734329396      0.0006091855228      0.0007149105965      0.0001406277725      0.0005757923603      4.367067764e-08      0.0004901781439      5.752582141e-11      0.0003282291045     -2.613344863e-28      0.0002714949761     -7.111273057e-47 
                   0                   68           4.19093501                   -0                   -0                   -0                   -0                   -0                   -0                   -0                   -0      -0.001311434835      -0.003632128728     -0.0008123807589       -0.00417141991       0.004905839571      0.0005367219296       0.004635740151      0.0001044502788        0.01871047158     -6.187630856e-06        0.02698167808     -1.451018455e-07 
                   1                    1           -3.7347321         0.8137120297         0.1388539779        0.02547174737      3.870552671e-06      3.640260861e-09      3.272168883e-11      3.518983774e-53     3.615938187e-106         0.8163067886         0.5998182047         0.7677050998         0.2319825938         0.5195596422       0.004008457153         0.4067844074       0.001474839061         0.2099052531      3.257763382e-05         0.1736373402      2.890106555e-07 
                   1                    1          15.02627594                   -0                   -0                   -0                   -0                   -0                   -0                   -0                   -0      -0.003468872478      -0.002188227674      -0.003615065475       0.000707873837       -0.00495932019      4.478271318e-06      -0.005899594408     -6.524639639e-06      -0.005634868747      6.261133026e-07      -0.004530813924      1.468256631e-08 
                   0                   69           0.80464222           0.53840944        0.09000653266        0.01545450496        1.8228564e-06      1.426854038e-09      1.135517676e-11      1.082582474e-54     5.397718731e-109         0.5149562622         0.4513048866         0.4856162562         0.1533259258         0.3241914315      0.0008614123404         0.2483309582      2.781348857e-05          0.100233945     -3.360489442e-15         0.0512339327      8.917527687e-24 
                   1                    2          -2.47821545         0.5878241191        0.09826724206        0.01687290394      1.990156334e-06      1.557809272e-09      1.239734351e-11      1.181940809e-54     5.893115949e-109         0.5619427717         0.4933107274         0.5308267522         0.1655051294         0.3603347871      0.0009309636758         0.2793753498      3.101453938e-05        0.09387937695       8.94929317e-14        0.02603001411      2.832184514e-23 
                   1                    1          14.93786723        0.01405669474       0.002349874018      0.0004034833759      4.759079998e-08      3.725204307e-11      2.964588685e-13      2.826386432e-56     1.409226489e-110        0.01361992007         0.0113944065        0.01287077224       0.003271788556       0.009518682212      3.154966323e-05       0.008670234723      9.094084164e-07       0.007691310371     -3.069542248e-16       0.005198196008     -1.477065053e-25 
                   0                   70           2.08933447          0.442511709        0.09411712459        0.03268040347      5.867789375e-05      3.340795645e-07      9.928593484e-09      2.370672105e-40      2.041569235e-80         0.7489336982         0.6448956721         0.6802844693         0.2648173976         0.3919824055        0.01575118906         0.2866517603         0.0124513555         0.1572654396       0.008601253251         0.1635569495       0.005032190612 
                   1                    3          -2.54507883         0.7925342938         0.1685628818        0.05853029413      0.0001050915538      5.983333466e-07      1.778201721e-08      4.245851363e-40       3.65643123e-80          1.341998022          1.209198147          1.221299865         0.4922422548         0.7131416122        0.02819982153         0.5140742146        0.02277255638         0.2066003648        0.02103970404         0.1538875775        0.01955287544 
                   1                    1          15.08363822       -0.01207816617      -0.002568886309     -0.0008919975126     -1.601587793e-06     -9.118557573e-09     -2.709966754e-10     -6.470647227e-42     -5.572375143e-82       -0.03577186727        0.01284834293          -0.03492549        0.01210695249       -0.03274672644     -0.0004931311502       -0.03372293857     -0.0002552477712       -0.07658560821      0.0009453070014        -0.1302163945       0.002069998032 
                   0                   71           2.90842141         0.1890901558        0.03027155602       0.004504995351      3.077038936e-07      1.622551684e-10      9.937197614e-13      5.182177897e-58     3.872000018e-115         0.1610196173         0.1410771354         0.1525377532        0.04604034578         0.1056512627      0.0001775653391         0.0842451483      4.093320942e-06        0.02877086575       1.95457608e-13        0.00318012556       3.83877999e-23 
                   1                    4          -3.75951859         0.7339991383         0.1175063606         0.0174872282      1.194427027e-06       6.29832649e-10      3.857363411e-12      2.011587591e-57     1.503010384e-114         0.6258377993         0.5454795231         0.5923132704           0.17916457         0.4035073916      0.0007426252069         0.3166903103      2.872681441e-05         0.1404409718      2.046100455e-13        0.06882488896      1.408710228e-23 
                   1                    1          14.90581025        0.01776111855        0.00284338808      0.0004231513595       2.89024318e-08      1.524052518e-11      9.333946769e-14       4.86758687e-59     3.636945088e-116        0.01613060096        0.01370663745        0.01537125303       0.003911014318        0.01153151372      2.681375981e-05       0.009955101863      8.568527993e-07       0.006487248187      3.257199507e-15       0.003580022311      -7.15876955e-26 
                   0                   73           5.06464242        -0.2037261626       -0.05198018555       -0.02785470519     -0.0002750014475     -5.473411096e-06     -3.738498657e-07     -1.445284321e-31     -1.265340316e-62        -0.5057010968        -0.4534219948        -0.4410943564        -0.2158635739        -0.2057764398       -0.02146210747        -0.1308078622        -0.0136045865        -0.1691289555      -0.001587806327        -0.2496501883       -0.00122014138 
                   1                    2          -2.47821545         0.8620650289         0.2199535867         0.1178668804       0.001163665617      2.316067919e-05      1.581941618e-06      6.115704798e-31      5.354273709e-62          2.143459756          1.962375961          1.868338422         0.9015458903          1.064961355        0.09180627515         0.7945223196         0.0320758839         0.2284885381       0.004548468629        0.05044043336       0.002192620699 
                   1                    1          14.93786723        0.02061464401       0.005259771289       0.002818562055      2.782684791e-05      5.538435508e-07      3.782912218e-08      1.462454375e-32      1.280372626e-63        0.05157411207        0.04374395025        0.04549982999        0.01663287293        0.03095413315        0.00356737946        0.02548656068       0.001671305327        0.03596643156      0.0001614042225        0.03806410143      0.0001234639318 
                   0                   74           6.34933467         -0.450969354       -0.09498599027       -0.03214977713     -5.224317618e-05     -2.764814146e-07      -7.82725435e-09     -7.095538905e-41     -1.822309981e-81        -0.7501220621        -0.6828708771        -0.6806773643        -0.2727627839        -0.4324840013       -0.01529528235         -0.329450168      -0.002392600587       -0.08767981535      3.148268234e-08       0.009140343104      2.622491044e-14 
                   1                    3          -2.54507883         0.7864273966         0.1656422645        0.05606470884      9.110478277e-05      4.821448667e-07       1.36496354e-08      1.237362614e-40      3.177853398e-81          1.308759657           1.14770006          1.188305194         0.4432408404         0.7744861573        0.02861339816         0.6183582156       0.005556637444         0.3003342382      4.649268098e-08          0.241184774      2.235636347e-14 
                   1                    1          15.08363822       -0.01198509749       -0.00252437631     -0.0008544221683     -1.388430399e-06     -7.347853417e-09     -2.080194711e-10     -1.885731808e-42     -4.843025938e-83       -0.03424529499      -0.009511883857       -0.03330584552       0.007070465976        -0.0353519101     -0.0001040811899       -0.04194276867      0.0001348248219       -0.09027541014       6.08844381e-09        -0.1260328249      3.436688798e-15 
                   0                   75           7.16842161         -0.238135359       -0.03050974366      -0.001995597611      -6.11775587e-09     -3.528219678e-13     -5.007182682e-16     -6.973424335e-74    -1.079428419e-146        -0.1052415102       -0.08755406782        -0.1020482757       -0.02237243724       -0.08011041525     -2.850071367e-05       -0.06621638251     -5.461671568e-07       -0.03182975126      -1.59864802e-19       -0.02292909254      5.151902086e-35 
                   1                    4          -3.75951859         0.3981646312        0.05101258749       0.003336658572      1.022894718e-08      5.899217542e-13      8.372058037e-16      1.165963316e-73     1.804814791e-146         0.1761260687         0.1467139913         0.1708093971         0.0368427506         0.1346411787      4.808799309e-05         0.1121128185      8.720252224e-07        0.05642348223      3.882009169e-19        0.04324718698      2.389616766e-34 
                   1                    1          14.90581025       0.009634683271       0.001234389207      8.073958861e-05        2.4751738e-10      1.427477182e-14      2.025848636e-17      2.821367438e-75     4.367243475e-148       0.004463149559       0.002232281496       0.004344853845       0.000591306727       0.003543136901      1.453628066e-06        0.00300414857      2.492263392e-08        0.00130724667      3.803682515e-21       0.001072932288     -1.476933972e-36 
                   0                   80           9.32464262        -0.1036003926       -0.01109274089     -0.0003317109595     -5.142097839e-11     -3.794442023e-16     -1.412652795e-19     -1.255430278e-88    -2.743386624e-175       -0.02483510366       -0.02021370503       -0.02425455136      -0.004378888401       -0.02002774651     -1.403758473e-06       -0.01728597331     -1.912303117e-09       -0.01114613789     -4.948936962e-31      -0.009301135475     -6.527403776e-58 
                   1                    2          -2.47821545        0.07460870692       0.007988532025      0.0002388844786      3.703125645e-11      2.732599807e-16      1.017333967e-19      9.041088293e-89     1.975673291e-175        0.01788060746        0.01454810072        0.01746122752       0.003151543978        0.01441267319      1.042990948e-06         0.0124312947      1.189471084e-09       0.008028380367     -1.355508483e-32       0.006846703693     -2.319221087e-58 
                   1                    1          14.93786723        0.00178412519      0.0001910305352      5.712467529e-06      8.855319999e-13      6.534492221e-18      2.432760507e-21      2.162004146e-90     4.724446557e-177      0.0004302474969      0.0003396843014      0.0004202591557      6.870984408e-05      0.0003489289826      2.391517256e-08      0.0003048900301      2.453531782e-11      0.0002303904702     -3.770083076e-33      0.0002343998397     -8.134945909e-60 
                   0                   42          -0.06906519         0.7091767466         0.1220831632        0.02302895094      3.894688774e-06      3.958702083e-09       3.74652031e-11      1.123147344e-52     4.151769392e-105         0.7294350252         0.6099973804         0.6872948871         0.2034622908         0.4709918725        0.00338843372         0.3703699919       0.001290728149         0.1874850888       0.000186473242         0.1529406432      1.764442304e-05 
                   1                    1           -1.2579321         0.4123213341        0.07098017947        0.01338922606       2.26440486e-06      2.301622737e-09      2.178258467e-11      6.530073264e-53     2.413873696e-105         0.4225046271          0.376258921         0.3990009879         0.1162091401         0.2812853599       0.002475078632         0.2266867463      0.0008977850011         0.1411449409      9.362353153e-05         0.1245358896      5.726753558e-06 
                   1                    1          15.02627594                   -0                   -0                   -0                   -0                   -0                   -0                   -0                   -0       -0.00351654275       -0.02814516247      -0.003674649008       -0.00508946281      -0.005005091072     -7.420223253e-06      -0.005361658732     -1.012664043e-05        0.00311501923      1.747253114e-06        0.01307540735      5.352531264e-07 
                   0                   44          -2.17066573       0.006863578051      0.0006942995485      1.574592796e-05      7.738726052e-13      2.553525651e-18      5.658691723e-22      4.508075054e-95     1.819649397e-186       0.001309186849       0.001091672485       0.001280521622      0.0002439379038       0.001060725703      3.263507579e-08      0.0009060989375      5.443718238e-11      0.0004730785245      5.854043434e-28      0.0002874044408       6.95115609e-48 
                   1                    3          -0.06827883       0.001388712119      0.0001404780699      3.185883635e-06      1.565781372e-13      5.166564716e-19      1.144926701e-22      9.121216972e-96     3.681708215e-187       0.000264869277      0.0002209069804      0.0002590717638      4.938603336e-05      0.0002145983354      6.730112485e-09      0.0001832612651      1.119282171e-11      9.543896144e-05      8.449100398e-29      5.797022951e-05      1.199582006e-48 
                   1                    1          15.08363822     -6.188858781e-05     -6.260469138e-06     -1.419803546e-07     -6.977975965e-15     -2.302503086e-20     -5.102417966e-24     -4.064911868e-97    -1.640770027e-188     -1.188057783e-05      -9.86718309e-06     -1.162452464e-05     -2.168836301e-06     -9.666510867e-06     -2.973134863e-10     -8.297552576e-06     -5.131206577e-13     -4.543649916e-06     -5.163838527e-30     -2.946373536e-06     -6.265418073e-50 
                   0                   45          -1.35157879         0.2687002903        0.03129668512       0.001371937563      9.322753342e-10      1.887251297e-14      1.349309545e-17      2.862050824e-81     2.598479434e-161        0.08715961956        0.07197573212        0.08473124662        0.01706701708        0.06771380193      7.702259586e-06        0.05733548678      1.081551582e-08        0.03556625384      1.448175314e-30        0.02929068253     -1.044030702e-56 
                   1                    4          -1.28271859         0.1212765615        0.01412560573      0.0006192173074      4.207779114e-10      8.518016407e-15      6.090042624e-18      1.291772638e-81     1.172810981e-161         0.0393254977        0.03236010989        0.03824278496       0.007676843712        0.03059648806      3.356241786e-06        0.02591317176      7.555971623e-09        0.01554373861      1.350648863e-29        0.01194170206      6.951156466e-56 
                   1                    1          14.90581025       0.005840159725      0.0006802286658      2.981885315e-05      2.026286184e-11      4.101911839e-16      2.932703665e-19      6.220623706e-83      5.64775532e-163       0.001962037659       0.001524854117       0.001910967372      0.0003039399675       0.001564859609      1.527407744e-07       0.001378165514      2.189074896e-10       0.001275536383      3.147583671e-32       0.001447093206     -2.269184767e-58 
                   0                   34           4.19093501                   -0                   -0                   -0                   -0                   -0                   -0                   -0                   -0       0.001499439918       -0.04767790827       0.004918310475       -0.07054670579         0.2007017955       -0.05917422069         0.2432773788        -0.1186021212         0.2220296631       -0.00400450807         0.3525131485      0.0005569667412 
                   1                    1           -1.2579321         0.5572350607         0.2433932895         0.3048959963        0.08916197783        0.02165100651       0.007813167168      8.180428237e-13      7.761829956e-26          3.308662541           3.38448457          2.485167963          2.213997105         0.8342898267          0.604095574         0.4760232748         0.3858951805        0.05537449648         0.1600010846        0.01889360056         0.1493236827 
                   1                    1          15.02627594                   -0                   -0                   -0                   -0                   -0                   -0                   -0                   -0       -0.04824865343       -0.02589728415       -0.05936777327        0.02288425345       -0.08424629991        0.01231856464         -0.103475508        0.01591147313       -0.07129215452       0.003328274865       -0.05162403012      0.0002607953738 
                   0                   35           0.80464222          0.806617999         0.2215181997          0.138279253       0.002497837148      7.756828965e-05      7.122547412e-06      1.010724455e-27      1.417509495e-55          2.315884303          2.120910095          1.987112056          1.007082082           1.09799988         0.1437724552         0.8154590021        0.07752572265         0.3562973542        0.01630570104          0.258931094        0.01150911528 
                   1                    2          -0.00141545         0.2906725954         0.0798262252        0.04983026588      0.0009001197686      2.795248321e-05       2.56667883e-06      3.642243304e-28      5.108132528e-56         0.8366836097         0.7810206934         0.7199585024         0.3569487902         0.4549627507        0.05137006394         0.3729713226        0.01387993972         0.0294375705       0.001248413585        -0.2554128743     -0.0001135781628 
                   1                    1          14.93786723        0.02105903452       0.005783356459       0.003610169331      6.521307333e-05      2.025138655e-06      1.859541592e-07      2.638780838e-29      3.700807745e-57        0.06070506196         0.0492328906        0.05272076196        0.01939574681        0.03369023671       0.005668203923        0.02581289324       0.004253878792        0.05221538088      0.0006719961241        0.08535686429      0.0002934035593 
                   0                   36           2.08933447         0.4717667873         0.2071951678         0.2610690875         0.0781600622        0.01931232693       0.007050345817      9.301559359e-13      1.178168048e-25          2.910100401          2.950933683          2.102613129          1.941160373         0.6322596592         0.5761012232         0.2683866719         0.4601438619        -0.2097393675         0.2200268782         -0.283288594         0.1025420399 
                   1                    3          -0.06827883         0.2889383905         0.1268987982         0.1598944309        0.04786992892        0.01182803201       0.004318056353      5.696835095e-13      7.215810625e-26          1.769664451          1.648362516          1.314465947          1.015673598         0.6883130837         0.2994668158         0.5966413908          0.124056019         0.4778288172       0.005184510864         0.5152255817         0.1058342357 
                   1                    1          15.08363822       -0.01287667091      -0.005655302712      -0.007125768105      -0.002133345175     -0.0005271216311     -0.0001924361472     -2.538820495e-14     -3.215758855e-27        -0.1308488207       -0.05505287545        -0.1453682082        0.02691216885        -0.2139711326      -0.007835188576        -0.2554595896      -0.002580350398        -0.2013426594       -0.02802801966        -0.1948848598       -0.07377700604 
                   0                   37           2.90842141         0.3030701064          0.113839521         0.1190652024        0.01685881603       0.002393789849      0.0006043869699      5.051003891e-17      6.445402222e-34          1.500876477           1.47571894          1.152636013         0.8929113778         0.4013670236         0.2139660132         0.2442938666         0.1417978666        0.06720955401       -0.04571947564       -0.06165522522        -0.1441142702 
                   1                    4          -1.28271859         0.5911485725         0.2220478658         0.2322407356        0.03288369529       0.004669168691       0.001178877385      9.852155248e-17      1.257197672e-33          2.881594695          2.805816349          2.223131974          1.697265594         0.8419314068         0.4420106417         0.4669902179         0.3492506757        0.04908752829         0.2391400142        0.07500667042         0.2159562099 
                   1                    1          14.90581025        0.02846718311        0.01069287409        0.01118371904        0.00158353791      0.0002248471641      5.676968522e-05      4.744375958e-18      6.054125477e-35         0.1342294121        0.07173952599         0.1091835754        0.02914067393         0.1078407793        0.03300584211         0.1264752415        0.04557293083         0.1404295001         0.1288317302         0.2007343041         0.1769824947 
                   0                   38           8.45093521        -0.7091767466        -0.1220831632       -0.02302895094     -3.894688774e-06     -3.958702083e-09      -3.74652031e-11     -1.123147344e-52    -4.151769392e-105        -0.7284326088        -0.6044344368        -0.6845951592        -0.1983293171        -0.4785602566      -0.006755599653        -0.3876594325      -0.003549173518        -0.2232042455     -0.0001228466056        -0.1939291753     -1.637510919e-06 
                   1                    1           -1.2579321         0.4123213341        0.07098017947        0.01338922606       2.26440486e-06      2.301622737e-09      2.178258467e-11      6.530073264e-53     2.413873696e-105         0.4246506702         0.3827273793         0.3987940917         0.1283777367         0.2692678695       0.003356244937         0.2093027863       0.002089383481        0.07635996893       0.000154377044        0.04551630472      4.779036114e-06 
                   1                    1          15.02627594                   -0                   -0                   -0                   -0                   -0                   -0                   -0                   -0      -0.003489499971       -0.04336241037      -0.003553296152      -0.006839603407       -0.00458744811     -2.855615188e-05      -0.005237010491      7.638961412e-06       0.001146212627      1.297032034e-05        0.01155470835      5.983757297e-07 
                   0                   39           5.06464242        -0.1402734273        -0.1061437035        -0.1962139234        -0.2766942594        -0.2155375056        -0.1690050173     -9.547486351e-05     -2.345148436e-09         -1.710433351         -1.854984964        -0.9653663434         -1.589203431       -0.04298086516        -0.4515949854         0.1305895295        -0.2301999989         0.6399556449        -0.2282783219          0.180811519         -0.429890393 
                   1                    2          -0.00141545         0.1959160765         0.1482480206         0.2740466442         0.3864513382         0.3010353654         0.2360447059      0.0001333471422      3.275404966e-09          2.417299921          2.556058215          1.290908578          2.131511991        0.07760003473          0.955836067            0.0674033         0.6436255564         0.3553056198        0.08643331588        0.04494191438        -0.1673473402 
                   1                    1          14.93786723         0.0141939883        0.01074046963        0.01985449551        0.02799814018        0.02180981026        0.01710128058      9.660910991e-06      2.373008922e-10         0.1246757442        0.08728091899        0.03958451709       0.001432937939         0.2742488091         0.2024813556         0.3769052001         0.1898950735         0.4509830303         0.2810418888         0.4266303817         0.3619850605 
                   0                   40           6.34933467        -0.4889200747        -0.2099135927         -0.258111202       -0.07003421914       -0.01608922061      -0.005595755151     -2.803806711e-13     -1.059167883e-26         -2.927310353           -2.8508475          -2.13427895         -1.799747041        -0.8869652595        -0.5097738576        -0.7022085866        -0.2883893853        -0.4487472487         -0.115326089        -0.3205697272        -0.1053736145 
                   1                    3          -0.06827883         0.2915641097         0.1251805212         0.1539228326        0.04176442288       0.009594695592       0.003336989936      1.672030767e-13       6.31627452e-27          1.710316316          1.772623267          1.235082493          1.217921387         0.2918269458         0.4118169823       -0.02903688294         0.3568633756         -0.546084374         0.1323462773        -0.4714058485         0.1113899418 
                   1                    1          15.08363822       -0.01299368729      -0.005578726918       -0.00685964111      -0.001861250519     -0.0004275919771     -0.0001487144757     -7.451481235e-15     -2.814876495e-28        -0.1119796852       -0.01744876095        -0.1366852634        0.02593067181         -0.185076223      0.0009627506248        -0.2322174146        0.01010877633        -0.2584801872       -0.03530665538        -0.2396099404       -0.07832837368 
                   0                   41           7.16842161        -0.6853134769        -0.1691885546       -0.08432099513     -0.0006252587557     -1.008176185e-05     -5.986264656e-07     -1.415173541e-32     -3.773257662e-65         -1.593986224         -1.446196078         -1.398905988        -0.6324692684        -0.8465149318       -0.06912797332        -0.6765305318       -0.02539051142        -0.3243468962      -0.003438459937       -0.08325278509      -0.002070879788 
                   1                    4          -1.28271859         0.5757778844         0.1421466691        0.07084373184      0.0005253218792      8.470365318e-06      5.029463034e-07      1.188982349e-32      3.170167211e-65          1.338860027          1.200319957          1.174902288         0.5338096021         0.6729334085        0.06412003334         0.5115226493        0.03492556443         0.2645917969       0.003616515796         0.2736790019       0.002451774278 
                   1                    1          14.90581025        0.02772699661       0.006845174709       0.003411530671      2.529725152e-05      4.078965115e-07      2.421973964e-08        5.7256297e-34      1.526616737e-66        0.07031845813        0.05129059634        0.06381550292        0.01271658585        0.05165746796       0.004476833852        0.05116106622       0.003272218424        0.08211003505      0.0002168145008         0.1078281165      0.0001180755101 
                   0                   46           9.32464262        -0.6911250673        -0.1057100374       -0.01345415009     -5.069614799e-07     -1.741467484e-10     -8.029178892e-13      -1.48595924e-60    -9.707291643e-121        -0.5204507835        -0.4530569748        -0.4959203391        -0.1427186562        -0.3483929467      -0.000389246611        -0.2722412684     -1.018113122e-05        -0.1020767881     -3.619024643e-14       -0.04000681089     -1.198951622e-24 