ITEM: TIMESTEP
0
ITEM: NUMBER OF ENTRIES
594
ITEM: BOX BOUNDS pp pp pp
0 4.26
0 2.4768
0 30
ITEM: ENTRIES c_2[1] c_2[2] c_2[3] c_2[4] c_2[5] c_2[6] c_2[7] c_2[8] c_2[9] c_2[10] c_2[11] c_2[12] c_2[13] c_2[14] c_2[15] c_2[16] c_2[17] c_2[18] c_2[19] c_2[20] c_2[21] c_2[22] c_2[23] 
                   0                   79          -1.35848543         0.2047448887        0.03244029361       0.004661827495      2.786974208e-07      1.334886651e-10       7.67075294e-13      1.127416417e-58     1.733232841e-116         0.1704988571         0.1489004173         0.1621029776        0.04693566879         0.1158998723      0.0001604084344        0.09393092202      9.821758657e-07        0.02842647034      3.120908974e-14      0.0002204103839      4.343907499e-24 
                   1                    4          -3.76143003         0.7191569529         0.1139450311        0.01637445348      9.789118016e-07      4.688727626e-10      2.694316496e-12      3.959998024e-58     6.087900199e-116         0.5964299304         0.5208075176         0.5653625012         0.1705626616         0.3863397324      0.0005720603138         0.3004561097      1.372131961e-05         0.1190332456      6.643479008e-14         0.0520006929      3.483550988e-24 
                   1                    1          14.92721028        0.01731461014       0.002743370251      0.0003942356077      2.356853555e-08      1.128870278e-11      6.486906583e-14      9.534194403e-60     1.465738711e-117        0.01574072684        0.01343767225        0.01506636242       0.003780024541        0.01142545236      1.912399351e-05       0.009718061202      3.998343584e-07       0.005244256504      1.565474174e-15       0.002216014181      7.459366324e-26 
                   0                   68           0.05760491                   -0                   -0                   -0                   -0                   -0                   -0                   -0                   -0     -0.0005267960165      -0.006693885877      0.0004710589525       -0.00823997992       0.009217832216      0.0004304080279        0.01272888127      0.0001071457831        0.03581566583     -1.583923039e-05        0.05011430566     -4.946692665e-06 
                   1                    1           -3.7410782         0.8137120297         0.1388539779        0.02547174737      3.870552671e-06      3.640260861e-09      3.272168883e-11      3.518983774e-53     3.615938187e-106         0.8199061016         0.5984304584          0.773309017         0.2235939492         0.5370886321       0.003675760807         0.4298482705         0.0015747799         0.2323260844      0.0002313697761         0.1966784574      2.182257581e-05 
                   1                    1          15.04696444                   -0                   -0                   -0                   -0                   -0                   -0                   -0                   -0      -0.002661955429      -0.001647956152      -0.002738952569      0.0004452264459      -0.003566693242      1.102465525e-05      -0.004231848419     -3.427982471e-06      -0.003951490345        9.2858887e-07      -0.003828318809      2.900042261e-07 
                   0                   69           0.68354789       -0.02863859519      -0.003308610495     -0.0001399462855     -8.303712761e-11     -1.531408707e-15     -1.030452784e-18      -6.76814605e-83    -1.437514804e-163       -0.00900488516      -0.007420595519      -0.008750934145      -0.001697070551      -0.007050421745     -2.292451599e-06      -0.006013390157     -5.340765553e-08      -0.004156533626      3.361745231e-19       -0.00434122008      1.518667953e-31 
                   1                    2          -4.86110146         0.2778847969        0.03210396842       0.001357920836      8.057223195e-10      1.485949974e-14       9.99864556e-18      6.567238644e-82     1.394843241e-162        0.08756250105        0.07166031201        0.08525646752        0.01638387973        0.06909195458      1.388049194e-05        0.05903189377      2.901102641e-07        0.03736370699      7.009462356e-18        0.03142562068      4.241676378e-31 
                   1                    1          15.01026798       0.001678962935      0.0001939702123       8.20447458e-06       4.86812494e-12      8.978018792e-17       6.04112045e-20      3.967885394e-84     8.427557491e-165      0.0004968010939      0.0004081170457      0.0004818633007      9.478878719e-05       0.000379671599      2.232752254e-09      0.0003246280776     -9.406503172e-10      0.0002598835437      1.316440443e-19      0.0002584432807      1.906104123e-32 
                   0                   70           2.07023951       -0.01489655088      -0.001535562234      -3.82391534e-05     -2.809447071e-12     -1.238253012e-17     -3.312567295e-21     -7.638186739e-93    -1.385739111e-182      -0.003079824137      -0.002560059083      -0.003012916192     -0.0005639696661      -0.002504747476     -8.962009848e-08      -0.002153540171     -2.061040373e-10      -0.001175409019     -6.481030606e-29     -0.0007270099632     -4.018514052e-52 
                   1                    3          -4.90122285        0.04525099005       0.004664550331      0.0001161584023      8.534207849e-12      3.761419348e-17      1.006252729e-20      2.320238523e-92     4.209435272e-182       0.009353112125       0.007782195645       0.009149424345       0.001720361411       0.007601789009       2.95436694e-07       0.006526959788      6.492980298e-10       0.003519536045      1.087850528e-28       0.002177008805      3.952525714e-52 
                   1                    1          15.08592171     -0.0002883429286     -2.972288787e-05     -7.401706318e-07     -5.438065514e-14     -2.396806499e-19     -6.411922885e-23     -1.478474548e-94     -2.68228583e-184     -6.237591207e-05     -5.104349342e-05     -6.113073374e-05     -1.045129759e-05     -5.174317592e-05     -2.006886936e-09     -4.532821505e-05     -4.413298718e-12     -2.841676117e-05      5.321232964e-31      -2.11504516e-05      8.963341416e-54 
                   0                   71           2.90151477        -0.2496511938       -0.03276662969      -0.002360171817     -1.039097142e-08     -7.730334651e-13     -1.297214514e-15     -4.899402627e-72    -4.628815592e-143        -0.1194557808       -0.09146380386        -0.1158358577        -0.0239196044       -0.09109086407     -2.907315256e-05       -0.07564944725     -6.372767028e-07       -0.03858700812     -5.941758777e-18       -0.03202487576     -1.378384144e-31 
                   1                    4          -3.76143003         0.4366358546        0.05730829939       0.004127901905      1.817363905e-08      1.352022887e-12      2.268806968e-15      8.568975059e-72      8.09572276e-143         0.2086921951         0.1736877246         0.2022932896        0.04388263143          0.158469978      5.201440184e-05         0.1310646615      1.180199212e-06        0.06556866819      8.067438372e-18        0.05269821421      8.224666732e-32 
                   1                    1          14.92721028        0.01051255858       0.001379769545      9.938444159e-05      4.375532681e-10      3.255165523e-14       5.46243876e-17      2.063088758e-73     1.949147302e-144       0.005399407626       0.005461693413       0.005274747336      0.0006407023535         0.0044576366       1.53546292e-06       0.003949044601      3.301830622e-08       0.002840660531      1.785655761e-19       0.003449009127      1.353312981e-33 
                   0                   50          -5.61848563         0.1967070275         0.0219869401      0.0008022913499      2.706667064e-10      3.392376723e-15      1.776630889e-18      9.539154006e-85     5.325672241e-168        0.05514270274        0.04512612026        0.05374261324        0.01020366021        0.04377535438      5.620967542e-06        0.03745120606      7.124610734e-08        0.02334386936      2.018319651e-18        0.01940927853      1.520651463e-31 
                   1                    4          -1.28463003        0.08653972486       0.009672983071      0.0003529618315      1.190777096e-10      1.492449721e-15      7.816149238e-19      4.196676518e-85     2.342988028e-168        0.02430391615        0.02001555547         0.0236969367       0.004497841807        0.01934877007      2.056705298e-06        0.01660348349      2.160271338e-08        0.01044904143      8.462552482e-19       0.008415991773      9.354913575e-32 
                   1                    1          14.92721028       0.004150124927      0.0004638804691      1.692674315e-05      5.710526256e-12      7.157236517e-17      3.748335905e-20      2.012570742e-86     1.123610346e-169       0.001208794167      0.0008437704349       0.001180719587       0.000145996148      0.0009874639571      1.042739319e-07      0.0008781756305       1.12892108e-09       0.000809366358      4.109162792e-20      0.0009700501698      4.161305862e-33 
                   0                   42          -4.20239529         0.7091767466         0.1220831632        0.02302895094      3.894688774e-06      3.958702083e-09       3.74652031e-11      1.123147344e-52     4.151769392e-105         0.7252624427         0.6369998851         0.6807882283         0.2164511191         0.4594947331        0.00431207525         0.3588643247       0.001742203313         0.1565894723      4.336031924e-05         0.1082379791      4.428402698e-07 
                   1                    1           -1.2642782         0.4123213341        0.07098017947        0.01338922606       2.26440486e-06      2.301622737e-09      2.178258467e-11      6.530073264e-53     2.413873696e-105         0.4210649236         0.3385176015         0.3960586083         0.1086032803         0.2793017187       0.003123105324         0.2280873255       0.001110556907         0.1509613794      1.165292123e-05         0.1494449561     -2.461565241e-08 
                   1                    1          15.04696444                   -0                   -0                   -0                   -0                   -0                   -0                   -0                   -0      -0.002832364026      -0.008899228777      -0.003015397674      -0.001778970719      -0.004281018271     -1.337739837e-06      -0.004518415573     -2.258801347e-06        0.00385263295      5.010818066e-07        0.01145217426      1.042614941e-08 
                   0                   43          -3.57645231         0.5455410619        0.08819974182        0.01356597307      1.050779039e-06       6.06770929e-10      3.946735572e-12       6.81248802e-57     2.268433455e-113          0.475002164          0.416426118         0.4489043215         0.1405991704         0.2993012564      0.0006768963632         0.2270464265      3.341529033e-05        0.08933781147      8.536003669e-14         0.0430186894     -2.636126926e-23 
                   1                    2          -2.38430146         0.5399515368         0.0872960616        0.01342697831      1.040012928e-06      6.005540526e-10       3.90629796e-12      6.742688374e-57     2.245191455e-113         0.4698471784         0.4122530531         0.4446179074         0.1370678627         0.3033200014      0.0006785741615         0.2350276656      3.110199409e-05        0.07563092094      5.520528488e-13        0.01970121996      9.604159065e-23 
                   1                    1          15.01026798       0.005508836142        0.00089063493      0.0001369882635      1.061069451e-08      6.127131131e-12       3.98538645e-14      6.879203573e-59      2.29064851e-115       0.003894827798       0.003526412006       0.003541433869       0.001523559672       0.001797299459      1.018440053e-05       0.001267760066      3.503842442e-07      0.0004570806411     -2.089270294e-15      0.0001012019362     -9.899693777e-25 
                   0                   44          -2.18976069         0.4777498819         0.1028912219        0.03690611145      7.522815103e-05      4.700258606e-07      1.485898311e-08      1.216103783e-39      4.880138731e-79         0.8315207197          0.718062313         0.7551018603         0.2980702844         0.4312262045         0.0196968896         0.3042745853          0.016563604         0.1606370895        0.01730005621         0.1763238654        0.01786339935 
                   1                    3          -2.42442285         0.7731496277         0.1665103707        0.05972570044      0.0001217428181      7.606497311e-07       2.40465099e-08      1.968038554e-39      7.897599949e-79          1.343039319          1.217720095          1.216961821         0.5065998408         0.6912215057        0.03282161958         0.4815475444        0.02600111758         0.1915383199         0.0197079303         0.1417233504        0.01418581905 
                   1                    1          15.08592171      -0.008281621442      -0.001783582125     -0.0006397540963     -1.304052795e-06     -8.147728327e-09     -2.575750991e-10     -2.108071931e-41     -8.459544018e-81       -0.02614721538        0.02188875178        -0.0257978348        0.01399224496       -0.02580156532     -0.0003890008417       -0.02750746043     -0.0002312773989       -0.06872255567      0.0003232478697        -0.1200308512      0.0007971507444 
                   0                   45          -1.35848543         0.3365552237         0.1232535482         0.1245618096        0.01536867275       0.001971000688      0.0004650412045      1.004548695e-17      2.363599682e-35          1.555635008          1.577883673           1.22126709         0.9139552118         0.5043220668         0.2432980822         0.3089280888         0.2058672478        0.02731608267         0.2098883894       -0.07244596577         0.2690295415 
                   1                    4          -1.28463003         0.5934857889         0.2173468845         0.2196538892        0.02710131423       0.003475687839       0.000820059612      1.771434026e-17       4.16800193e-35          2.799190509          2.699506234          2.165170078          1.629807342         0.8043861168         0.4176140398         0.4187011737         0.3229487917        0.06570154728         0.1493830073        0.09264333731        0.06699882328 
                   1                    1          14.92721028        0.02846138199        0.01042315219        0.01053378761       0.001299678731      0.0001666811255      3.932702401e-05      8.495141997e-19      1.998819471e-36          0.126292656        0.07417888149          0.112133051        0.03045764353         0.1059591648        0.02793732954         0.1120319655         0.0356549925         0.1200561768         0.1013499104         0.1828470377         0.1680037835 
                   0                   34           0.05760491                   -0                   -0                   -0                   -0                   -0                   -0                   -0                   -0         0.0199202043        -0.1039343369        0.04022355817        -0.1599007318         0.3034235641       -0.06238730769         0.4382213691        -0.1459227833         0.5594221457         -0.125456305         0.6560141587       -0.02548303801 
                   1                    1           -1.2642782         0.5572350607         0.2433932895         0.3048959963        0.08916197783        0.02165100651       0.007813167168      8.180428237e-13      7.761829956e-26          3.312805867          3.381222698          2.487951284          2.177374174         0.9195777462          0.657850582         0.5747400851         0.4646802158          0.091667194         0.1882512371        0.04290775589         0.1529219682 
                   1                    1          15.04696444                   -0                   -0                   -0                   -0                   -0                   -0                   -0                   -0       -0.03732059408        -0.0192891015       -0.04487483833        0.01618877879       -0.06000429684       0.007357825564        -0.0760878914        0.01032913808       -0.05510769766       0.008615030305       -0.04568332123       0.001574985891 
                   0                   35           0.68354789         -0.148432919       -0.04000392858       -0.02404507474     -0.0003738800798     -1.039661506e-05     -8.870296363e-07     -2.905048678e-29     -6.521942473e-58        -0.4087730573        -0.3507722232        -0.3505846772        -0.1770795769        -0.1415749437       -0.02596869834       -0.07853441807       -0.02750024834        -0.1491226022      -0.006246426145        -0.4177777388      -0.004044946408 
                   1                    2          -2.38430146          0.852932284         0.2298724731         0.1381689497       0.002148407459       5.97415229e-05      5.097091796e-06      1.669312859e-28      3.747669538e-57          2.366280499          2.165441902          2.042126527          1.003396826          1.174621399         0.1390160062         0.9024489659        0.07145955771         0.3590090903        0.01235523541         0.1346243214       0.007386730438 
                   1                    1          15.01026798       0.008702010964       0.002345265642       0.001409663742      2.191904987e-05      6.095107396e-07       5.20028958e-08      1.703110443e-30      3.823546373e-59        0.01768790006        0.01403510408        0.01435265132       0.006636491622       0.008282336169       0.002549149508       0.005952046933       0.001678409084        0.01837625447      0.0003636542751        0.02949567176       0.000240591327 
                   0                   36           2.07023951        -0.4403980842       -0.09887833682       -0.03940021847      -0.000121222935      -1.02431774e-06     -3.957817748e-08     -1.772489523e-37     -1.055747001e-74        -0.8466986945        -0.7493039834        -0.7639415494        -0.2933744821        -0.4962009881       -0.02347731955        -0.3984916121      -0.006591338929        -0.2019901946      -2.69219631e-05        -0.1509186174     -1.190009065e-06 
                   1                    3          -2.42442285         0.7958242674         0.1786787518        0.07119842508      0.0002190567055      1.851000139e-06      7.152000709e-08      3.202988902e-37      1.907794592e-74          1.526366319          1.329257771          1.375149013         0.5303719497         0.8877675689        0.04459447029          0.700809846        0.01094266197         0.3294007477      5.576290064e-05         0.2768212118       2.10201864e-06 
                   1                    1          15.08592171      -0.008524501702      -0.001913924199     -0.0007626446197     -2.346434176e-06     -1.982705791e-08     -7.660892575e-10     -3.430893661e-39     -2.043541384e-76       -0.02941670071         0.0795500034       -0.02849673654        0.02359696171       -0.02912097965      -0.000113664576       -0.03363432029      0.0001364361223       -0.07322620028     -4.375149299e-07        -0.1175619792      -2.30324406e-08 
                   0                   37           2.90151477        -0.6642823264        -0.1703208401       -0.09223748996     -0.0009493704831     -1.948374972e-05     -1.358210186e-06      -7.88738123e-31     -1.148104092e-61          -1.67701928         -1.533992651         -1.466909785        -0.6823041458        -0.8890630141       -0.07896865215        -0.6904286853        -0.0252146446        -0.1907017567      -0.001999052995        0.07625552615      -0.001220727482 
                   1                    4          -1.28463003         0.5832863588          0.149553614        0.08099096954      0.0008336137065      1.710809543e-05       1.19260357e-06      6.925672558e-31      1.008115719e-61          1.466501666          1.324090642          1.277738287         0.6059729829         0.7120110973         0.0710688697         0.5260596814        0.03422607272         0.2881170884       0.002106952713         0.3234417878       0.001282867966 
                   1                    1          14.92721028        0.02797225507       0.007172037841       0.003884027158      3.997702822e-05       8.20440941e-07      5.719285347e-08      3.321296245e-32      4.834549893e-63        0.08045595991        0.06019598076        0.07385290286         0.0123851099        0.06530383516       0.004797288744        0.06858982943       0.003184020959         0.1026277101      0.0001333307656         0.1050730418      6.932460651e-05 
                   0                   38           4.31760511        -0.7091767466        -0.1220831632       -0.02302895094     -3.894688774e-06     -3.958702083e-09      -3.74652031e-11     -1.123147344e-52    -4.151769392e-105        -0.7276260562        -0.6190753092        -0.6843987627         -0.202392542        -0.4745973123      -0.005604009153        -0.3774296427      -0.002441694968          -0.20972927     -9.445948875e-05        -0.1840743574     -1.608694396e-06 
                   1                    1           -1.2642782         0.4123213341        0.07098017947        0.01338922606       2.26440486e-06      2.301622737e-09      2.178258467e-11      6.530073264e-53     2.413873696e-105         0.4228642506          0.348692627          0.396721715         0.1228185721         0.2669606371       0.002632641912         0.2090805097       0.001296510702        0.08957200111      9.433725595e-05        0.06149561362       3.05749654e-06 
                   1                    1          15.04696444                   -0                   -0                   -0                   -0                   -0                   -0                   -0                   -0      -0.002691385829       -0.06542749309      -0.002736189448       -0.00786440135      -0.003537623621     -3.515385516e-05      -0.003917848529     -1.040807898e-05      0.0004207621024      5.595062757e-06       0.007543932724       3.01229431e-07 
                   0                   39           4.94354809        -0.2451918827       -0.02870433549      -0.001286565482     -9.510278713e-10     -2.039994645e-14     -1.514606922e-17     -6.671277753e-81    -1.498780959e-160       -0.08021072634       -0.06636885649       -0.07798670095       -0.01584918228       -0.06225985285     -9.446383475e-06       -0.05243583486     -4.664268048e-08       -0.03141481577     -9.494932806e-23       -0.02530940089     -1.053868368e-40 
                   1                    2          -2.38430146         0.1804998205        0.02113090917      0.0009471147088      7.001062113e-10      1.501757168e-14      1.114989104e-17      4.911110529e-81     1.103338703e-160        0.05896576189        0.04871951644        0.05731610182        0.01159946746        0.04575976423      7.001565349e-06        0.03858300398      2.278426775e-08        0.02368211449      7.323507528e-23        0.02019000791      1.824487693e-40 
                   1                    1          15.01026798       0.001841542929      0.0002155873411      9.662903766e-06      7.142808451e-12      1.532162351e-16      1.137563625e-19      5.010542861e-83     1.125677346e-162      0.0005571705109      0.0005092466892      0.0005387007191      0.0001358613062      0.0004119664294      4.492798764e-08       0.000340229206     -1.001097021e-10      0.0002032467428      8.360542727e-25      0.0001209104023      4.654570308e-42 
                   0                   16          -5.61848563          0.531108877        0.07097940953       0.005488690766      3.154604663e-08      2.832831623e-12      5.381348973e-15      2.347200003e-70     4.678841904e-140         0.2677748557         0.2212370954         0.2591437035         0.0565453743         0.2033738874      0.0002383358694         0.1694623168       3.11025522e-05        0.08602170537      1.543399258e-10        0.06781106801       4.86356071e-17 
                   1                    4           1.19216997       0.001904310282       0.000254499266      1.967990126e-05      1.131095027e-10      1.015722128e-14      1.929502334e-17      8.415971364e-73     1.677615858e-142      0.0009094672395      0.0004182977142      0.0008864638608      0.0004974470499      0.0004747896301      -5.99576159e-06     -0.0001258571809     -1.272829677e-06      -0.003107543378      1.272698229e-11       -0.00289679697      1.547240495e-17 
                   1                    1          14.92721028        0.01120533526       0.001497523605      0.0001158003995      6.655585018e-10      5.976708248e-14      1.135357023e-16      4.952122641e-72     9.871420796e-142       0.006113373111       0.001446053449       0.005953304661       0.001057292268       0.004880397367      4.372174265e-06       0.004100355514      5.055969689e-07      0.0004223140344      3.755695674e-12      -0.001889758215      1.707726159e-18 
                   0                    8          -4.20239529         0.9092325462         0.1968793749        0.07160755061      0.0001541166679      1.002058221e-06      3.252824998e-08      4.514180833e-39      3.503902196e-78           1.60206511          1.413106277             1.444462         0.5605140169         0.9326647467        0.04135362705         0.7456899821       0.009419581836         0.3500805461       0.000122339056         0.2627144529      3.328737364e-06 
                   1                    1            1.2125218                   -0                   -0                   -0                   -0                   -0                   -0                   -0                   -0     -0.0005234481616        0.01160227586     -0.0007803906616       0.008445114413      -0.004372747969      0.0009589996997       -0.01263538666      0.0008410776641         -0.058165598      2.063695004e-06       -0.06216104905      5.017290956e-07 
                   1                    1          15.04696444                   -0                   -0                   -0                   -0                   -0                   -0                   -0                   -0      -0.007601335852        0.04318749956       -0.00826849651        0.02396084823       -0.01497105639      0.0001943813412       -0.02408757386      0.0001129453806        -0.1034037043      2.507860455e-08         -0.182970361     -1.969952654e-08 
                   0                    9          -3.57645231         0.8470371645         0.2158855289         0.1154164798       0.001128986657      2.231809525e-05      1.517508092e-06      5.360062398e-31      4.192017184e-62          2.098596104           1.90411367          1.823512518         0.8725635868          1.039214451         0.0977483816         0.7987229883        0.03908867799         0.3764350294       0.005049899559         0.2570346072       0.002029686887 
                   1                    2           0.09249854         0.2610584448        0.06653632543        0.03557157583      0.0003479558079      6.878478869e-06      4.676988439e-07      1.651981297e-31      1.291987569e-62         0.6468441035         0.5985731289         0.5617904093         0.2625613934         0.3677273752        0.03033512308         0.3142547464       0.005764639111        0.09965894286      0.0005514602417        -0.1439824175     -0.0002922369051 
                   1                    1          15.01026798       0.008553323061        0.00217999723       0.001165467679      1.140042965e-05      2.253665916e-07       1.53236924e-08      5.412554164e-33      4.233070137e-64        0.01526472567        0.01468472525        0.01167968943        0.01158772401      -0.001875703621       0.001597023426       -0.01033611396      0.0007733753693       -0.01363963744      2.611972453e-05        0.01682344577     -4.063090936e-06 
                   0                   10          -2.18976069         0.5104973382         0.2175881875         0.2654113457        0.06972757912        0.01564062452       0.005353912849       1.95265201e-13       4.95982737e-27          3.019930812          3.012697233          2.215747572          1.983243922         0.6863703488         0.5421205083         0.3114337272         0.3702230543        -0.1882720302         0.1586551683         -0.188732045         0.1629836427 
                   1                    3           0.05237715          0.263531112         0.1123243017         0.1370117763        0.03599506813       0.008074069861       0.002763819713      1.008006344e-13      2.560383228e-27          1.579527668          1.487736424          1.155199344          0.890464208         0.6268241905         0.2171192319         0.6297336021          0.061814463         0.5598534792       0.001498197513         0.4447609388       -0.06402848635 
                   1                    1          15.08592171      -0.008849286755      -0.003771812547      -0.004600809702       -0.00120870237     -0.0002711245702     -9.280814319e-05     -3.384851649e-15     -8.597681393e-29        -0.1008993829       -0.05632609676        -0.1030790712        0.02271475772        -0.1604045872       -0.00757028079        -0.1998852135      -0.006348398622        -0.1479008151       -0.02390841189        -0.1174819849        -0.0421607488 
                   0                   11          -1.35848543         0.2170233962         0.1742488225          0.329936026         0.5128733794          0.429447835         0.3533294897      0.0005218506266       4.26028959e-08          2.869003286          3.095479602          1.502812697          2.674435397       -0.01688516746          1.039309015        -0.1050466028         0.6365303838        -0.1228977544         0.1935022844        -0.1120871359         0.1215087054 