ITEM: TIMESTEP
0
ITEM: NUMBER OF ATOMS
4
ITEM: BOX BOUNDS pp pp pp
0.0000000000000000e+00 4.2600002000000003e+00
0.0000000000000000e+00 2.4767999999999999e+00
0.0000000000000000e+00 3.0000000000000000e+01
ITEM: ATOMS id type c_1[1] c_1[2] c_1[3] c_1[4] c_1[5] c_1[6] c_1[7] c_1[8] c_1[9] c_1[10] c_1[11] c_1[12] c_1[13] c_1[14] c_1[15] c_1[16] c_1[17] c_1[18] c_1[19] c_1[20] c_1[21] c_1[22] 
1 1          13.95427891          12.59449909          8.790803874           6.12440217          1.239475118          0.396627348      0.0002885122607       6.50666659e-08          48.58735241          43.39736551          45.96366314          35.36451497          36.01488415          14.78897273          21.39366672          4.303313857          15.25308701          2.571102295           5.10438881          0.937727148          3.305559201         0.7697308159 
2 1          13.95357635          12.59375647          8.791953753          6.129093675          1.254816695         0.4082038386      0.0003094646367      6.726247574e-08          48.57852335          43.43870594          45.94052233             35.41447          35.97673375          14.83519976          21.34164849          4.345961629          15.20024158          2.616362515          5.053052983         0.9718806418          3.258493787         0.7946041002 
3 1          13.95949141          12.60020099          8.784143063          6.092847694          1.142442769         0.3286825522      9.779959917e-05      5.270517261e-09          48.60824717          43.32680731          46.05198406          35.26216962          36.25034082           14.5027471          21.48326231          4.134906234            15.238356          2.497549994          4.932891118         0.8773155604          3.018244553         0.6557248655 
4 1          13.95662096          12.59752836          8.779410762          6.083555049          1.124021986          0.316722017      7.684722317e-05      3.074707424e-09          48.61090644          43.31091034          46.07564769          35.22933708           36.2868744          14.43200633          21.54045495          4.078588333          15.29518136          2.442450073           4.95757863         0.8215374206          3.022059724         0.5736074714 
