ITEM: TIMESTEP
0
ITEM: NUMBER OF ENTRIES
588
ITEM: BOX BOUNDS pp pp pp
0 4.26
0 2.4768
0 30
ITEM: ENTRIES c_2[1] c_2[2] c_2[3] c_2[4] c_2[5] c_2[6] c_2[7] c_2[8] c_2[9] c_2[10] c_2[11] c_2[12] c_2[13] c_2[14] c_2[15] c_2[16] c_2[17] 
                   0                   79          -1.46645904         0.2051115067        0.03114498068       0.003864109894      1.864714515e-13      1.382697044e-61     2.884160741e-122         0.1506062776          0.121885126         0.1370476762        0.01490451902         0.0820666894      7.209452271e-07      -0.005217460158      2.193147141e-25 
                   1                    4          -3.79404457         0.6716045714         0.1019792197        0.01265240508      6.105707149e-13      4.527418625e-61     9.443719515e-122          0.492703267         0.3956487011         0.4468433969        0.05037847913         0.2532378366      9.549034143e-06        0.04547496203      1.336323209e-25 
                   1                    1          14.97471856       0.006150941252      0.0009339843952      0.0001158780087      5.591958063e-15      4.146470583e-63     8.649101929e-124       0.006386181029       0.004750514016       0.006110434215      0.0003030665982       0.004665528393      1.150070346e-07       0.001452137231      -1.87259102e-27 
                   0                   68           0.08127095                   -0                   -0                   -0                   -0                   -0                   -0     -4.604580939e-05      -0.009202501373       0.001845614864      -0.001997608394        0.01516798669      9.003072124e-05        0.05011733722     -9.228015708e-06 
                   1                    1          -3.67985216         0.8137120297         0.1388539779        0.02547174737      3.272168883e-11      3.518983774e-53     3.615938187e-106         0.8135713473         0.5545623472         0.7266410816        0.09647502747         0.4252363532       0.002797971951         0.1946985878      1.969517285e-05 
                   1                    1          15.02113232                   -0                   -0                   -0                   -0                   -0                   -0       0.001901282545      0.0001120876895       0.002221555081     -0.0003468718644          0.004147693      1.036340803e-05       0.006545505086      -1.13666879e-06 
                   0                   69           0.70003171        -0.0198669344      -0.002203880417     -7.769324128e-05     -1.297309703e-19     -2.286971375e-86    -3.238177977e-170      -0.005372281946      -0.003928172195      -0.005095314923     -0.0003031109845       -0.00361998811     -6.117565287e-09      -0.002479036996      1.576188152e-37 
                   1                    2            -4.919242         0.1988421549        0.02205797444      0.0007776082211      1.298438157e-18      2.288960678e-85      3.24099468e-169        0.05404064789        0.03915021143        0.05138775335       0.002901923041         0.0369834227      3.576288946e-08        0.02003636409      2.158778948e-34 
                   1                    1          15.09734871       -0.00244712677     -0.0002714648702     -9.569931968e-06      -1.59797241e-20     -2.816996705e-87    -3.988653638e-171     -0.0006795717662      -0.000494407952     -0.0006472485184     -3.535325674e-05     -0.0004682343314     -6.239876935e-10     -0.0003101080379     -1.990422985e-36 
                   0                   71           2.79354116        -0.2329773369       -0.03039951362      -0.002139377474     -9.731971919e-16     -1.655279312e-72    -5.787495651e-144         -0.109351726       -0.08285670669        -0.1029054824      -0.007064434415       -0.07026164064     -6.082063635e-07       -0.02735073523     -2.948134629e-32 
                   1                    4          -3.79404457         0.4353108976        0.05680054436       0.003997360176      1.818388641e-15      3.092837838e-72     1.081375536e-143         0.2044522101         0.1508941479         0.1923695251        0.01323859022         0.1302134997      1.287491605e-06        0.05030395282       1.00824202e-32 
                   1                    1          14.97471856       0.003986827773      0.0005202120807      3.661012544e-05      1.665384987e-17      2.832598922e-74     9.903859621e-146        0.00247226548      -0.003883598599       0.002449103687      2.609836493e-05       0.002604403879      1.666059485e-08       0.006469899045     -3.030357154e-34 
                   0                   50          -5.72645924         0.0951336532        0.01007188745      0.0002854541103      7.707982045e-20      1.221767564e-89     3.317950964e-177        0.02197096685        0.01598151688        0.02098002253       0.001083373817        0.01537399978      1.701053469e-09        0.00783764144      1.857329137e-57 
                   1                    4          -1.31724457        0.04244180864       0.004493353356       0.000127349138      3.438748413e-20      5.450650051e-90     1.480231602e-177       0.009809064114        0.00714683596       0.009367543763      0.0004826667436       0.006866927446       8.69669882e-10       0.003406219405      8.221598257e-57 
                   1                    1          14.97471856      0.0007602816252      8.049171563e-05      2.281269641e-06      6.160004288e-22      9.764025642e-92     2.651613879e-179      0.0001898743342      0.0001104864118      0.0001828914311      7.639119535e-06      0.0001472872398      1.293116692e-11      0.0001767356316      1.484325649e-59 
                   0                   42          -4.17872925         0.7091767466         0.1220831632        0.02302895094       3.74652031e-11      1.123147344e-52     4.151769392e-105          0.725226974         0.5719265921         0.6446486052        0.08946760807         0.3714004228       0.002573741388         0.1359809714      1.593329254e-06 
                   1                    1          -1.20305216         0.4123213341        0.07098017947        0.01338922606      2.178258467e-11      6.530073264e-53     2.413873696e-105         0.4219469101          0.307019761         0.3767190024        0.05034659778         0.2326895506        0.00154246902         0.1319326032     -2.261332186e-07 
                   1                    1          15.02113232                   -0                   -0                   -0                   -0                   -0                   -0       0.001876585084       -0.05986590444       0.001820782251      6.240594528e-05       0.002806748862      2.874270694e-06        0.02535897539     -1.000846292e-07 
                   0                   43          -3.55996849         0.5160772569        0.08093596486        0.01123215133      1.380269557e-12      5.751910372e-59     1.833231884e-117         0.4131060204         0.3320806144         0.3727983877        0.04430994199          0.207035741      1.766922423e-05        0.04730910254     -5.152169841e-25 
                   1                    2            -2.442442         0.5267000674        0.08260193137        0.01146335124      1.408680695e-12      5.870306316e-59      1.87096669e-117         0.4226062626         0.3400900552         0.3823830054        0.04424203764         0.2218506953       1.55441087e-05        0.02666420246       2.81214553e-24 
                   1                    1          15.09734871       -0.01080224087      -0.001694106407     -0.0002351051174     -2.889103137e-14     -1.203957749e-60    -3.837218578e-119      -0.009447388737      -0.006925957719      -0.008849130541     -0.0006598842276      -0.006621435862     -3.300224419e-07      -0.004109467541     -8.736253946e-26 
                   0                   44          -2.10715738         0.4587403159        0.09701751539        0.03319147424      8.867524556e-09      1.206751491e-40      5.148442212e-81         0.7579930129         0.6606749664         0.6403003039         0.1369535402         0.2790868703        0.01728317505        0.08988047747        0.01827197228 
                   1                    3           -2.4592755         0.7825197119         0.1654925795        0.05661805157      1.512623269e-08      2.058477958e-40      8.782218123e-81           1.29642409          1.059342418          1.092531653         0.2339240243         0.4853598344        0.02884826792         0.1927686078        0.02025967988 
                   1                    1          15.07673998       -0.01165652773      -0.002465201595     -0.0008433907518     -2.253225677e-10     -3.066338782e-42     -1.308212017e-82        -0.0187202797        0.09958089342       -0.01819666217      -0.002391023531       -0.01598244023     -0.0007657625855         -0.066108127      -0.005977104378 
                   0                   45          -1.46645904         0.3716855338         0.1281236324         0.1186958274      0.0002036582022       1.43493659e-19      4.685950611e-39           1.49033286           1.42557932          1.069160069         0.5758886046         0.2726744485         0.1902799549        0.04175395586         0.2585319373 
                   1                    4          -1.31724457          0.622223775         0.2144866101         0.1987039018      0.0003409359899      2.402169524e-19      7.844561096e-39          2.601600439          2.471610821          1.778120573         0.9757897218          0.495864665         0.2906490678        0.04434105724        0.09132265039 
                   1                    1          14.97471856        0.01114620979       0.003842207336       0.003559483684      6.107359153e-06      4.303127996e-21      1.405235981e-40         0.1110110072         -0.101876758        0.07464755598       0.008857828528        0.06820110336      -0.003617778252        0.09761334629       -0.09016313591 
                   0                   34           0.08127095                   -0                   -0                   -0                   -0                   -0                   -0        0.03130782476        -0.1537678109        0.02920774852       -0.02561731059         0.4656882566        -0.1616971124         0.6398978904       -0.01571345974 
                   1                    1          -1.20305216         0.5572350607         0.2433932895         0.3048959963       0.007813167168      8.180428237e-13      7.761829956e-26          3.227468782          3.258902866          1.990115247          1.601268011         0.5690498695         0.4598098729        0.03940841434         0.1535546797 
                   1                    1          15.02113232                   -0                   -0                   -0                   -0                   -0                   -0        0.03020483757      -0.003253886162        0.03528726183       -0.00970021118        0.08843073699       -0.02214746344        0.08169861509      -0.001948753759 
                   0                   35           0.70003171        -0.1448662575       -0.03739448857       -0.02054531871     -3.434663986e-07     -3.481468041e-31     -1.016424551e-61        -0.3589854014        -0.2858104982        -0.2779936915       -0.09375664646       -0.06775940243       -0.02292664436        -0.3270577555      -0.001923748941 
                   1                    2            -2.442442         0.8700463075         0.2245860233          0.123392286      2.062810739e-06      2.090920595e-30      6.104502474e-61          2.190996183          1.886526089          1.727601561         0.5306160479         0.8774352507        0.05697133429         0.1725650207       0.004849378301 
                   1                    1          15.09734871       -0.01784402615      -0.004606098364      -0.002530687342     -4.230676972e-08     -4.288328271e-32     -1.251989703e-62       -0.04972846502       -0.03655201512       -0.04194460868      -0.009182402189       -0.02366476954      -0.002892552591        -0.0452710511     -0.0002368543124 
                   0                   36           2.15284282        -0.4410450738       -0.09517906385       -0.03431868773     -1.445820185e-08     -1.442988581e-39     -7.419474904e-79        -0.7700274939        -0.5767739995        -0.6477031479        -0.1378546171        -0.3781292503      -0.005096912356        -0.2082145173     -6.811736745e-12 
                   1                    3           -2.4592755          0.794774045         0.1715150085        0.06184311737       2.60540345e-08       2.60030083e-39      1.337007583e-78          1.390722479          1.156067367          1.169561357         0.2489966672         0.6576872487       0.006852397591         0.2092911203     -2.170721796e-12 
                   1                    1          15.07673998       -0.01183907006      -0.002554912575      -0.000921224094      -3.88104697e-10     -3.873446032e-41     -1.991625991e-80       -0.02119378737       -0.06245921398       -0.01770021439      -0.003929442166      -0.002514241148     -0.0002496216129        0.08556110621     -5.489067745e-13 
                   0                   37           2.79354116         -0.636309513        -0.1652701236       -0.09200483145     -1.726778492e-06     -2.908880249e-30     -1.602095672e-60         -1.627073071         -1.415295545         -1.283042642        -0.3918927294        -0.6669094246       -0.02348682798        0.07369958473      -0.001024518805 
                   1                    4          -1.31724457         0.6078572528          0.157880153        0.08789088163      1.649566459e-06      2.778811129e-30      1.530458769e-60          1.554467883          1.336903971          1.219614375          0.380949709         0.5470156874        0.03039234978         0.2680465597        0.00201717562 
                   1                    1          14.97471856        0.01088885499       0.002828187186       0.001574433901      2.954951989e-08       4.97782519e-32      2.741588347e-62        0.04698903415        0.02177794739         0.0461757664       0.001151889602        0.06968609227      0.0007950138257        0.07803287915     -4.141523983e-06 
                   0                   38           4.34127115        -0.7091767466        -0.1220831632       -0.02302895094      -3.74652031e-11     -1.123147344e-52    -4.151769392e-105        -0.7276812034        -0.5489856231        -0.6491208517       -0.08707119175        -0.3736445573      -0.001450015233        -0.1752395278     -2.433505069e-07 
                   1                    1          -1.20305216         0.4123213341        0.07098017947        0.01338922606      2.178258467e-11      6.530073264e-53     2.413873696e-105         0.4234569832         0.3612674108         0.3753106195        0.05323913716         0.2067277838       0.000695657231        0.04748839148      3.728476593e-07 
                   1                    1          15.02113232                   -0                   -0                   -0                   -0                   -0                   -0       0.002068067434       -0.03766469132       0.002325055157     -0.0002859420405       0.003627359708     -6.853442911e-06        0.01969013773      1.058952019e-08 
                   0                   39           4.96003191        -0.2078306107       -0.02378590914     -0.0009651010015     -5.071522905e-18     -8.552871793e-83    -3.374651391e-164       -0.06327146878       -0.04705442896       -0.05993448811      -0.003649899714       -0.04172860703      -1.31954573e-08       -0.01954435577      -1.28496395e-45 
                   1                    2            -2.442442         0.1583061786        0.01811791039      0.0007351248741        3.8630181e-18       6.51478839e-83     2.570497984e-164        0.04811742211        0.03561716744        0.04555195716       0.002806630431        0.03170363506      8.199473571e-09        0.01576605575      1.187898488e-45 
                   1                    1          15.09734871      -0.003246746255     -0.0003715853559     -1.507688426e-05     -7.922773237e-20     -1.336136403e-84    -5.271907122e-166      -0.001022426958     -0.0007090744799     -0.0009725628069     -5.454827824e-05     -0.0007062285636     -2.507311609e-10     -0.0005826589947      -2.42665344e-47 
                   0                   16          -5.72645924         0.4600454129        0.05880207921       0.003809756696      8.848847338e-16      8.913371373e-74     9.216442639e-147         0.2031380686         0.1495054937         0.1914467715        0.01280307012         0.1300584201       8.54410641e-07        0.05331547121       1.82605033e-33 
                   1                    4           1.15955543       0.009045477784       0.001156174774      7.490797341e-05      1.739872842e-17      1.752559649e-75     1.812149949e-148       0.003973459642       0.000608905674       0.003734891425      0.0002601569518        0.00205133511      3.355491785e-08      -0.001814879485      -1.09500845e-33 
                   1                    1          14.97471856       0.003676554641      0.0004699298182      3.044651304e-05      7.071752013e-18      7.123317822e-76     7.365523926e-149       0.002113162044      0.0004524881735       0.002061131144      5.708804826e-05        0.00176743207      6.867312844e-09     -8.270067962e-05      1.459328498e-35 
                   0                    8          -4.17872925         0.9092325462         0.1968793749        0.07160755061      3.252824998e-08      4.514180833e-39      3.503902196e-78          1.595424526          1.308584394          1.331398456         0.2972705701         0.7429492266       0.007578501304         0.2661526431      1.423014554e-06 
                   1                    1           1.27374784                   -0                   -0                   -0                   -0                   -0                   -0     -5.525477206e-05        0.06275077282     -0.0007991427644      0.0007931786291       -0.01728347031       6.07755835e-06        -0.1655640557     -4.025408193e-09 
                   1                    1          15.02113232                   -0                   -0                   -0                   -0                   -0                   -0       0.005066690461        0.02785753309       0.004778007143      0.0002904550706       0.003734214636     -0.0001837902544       -0.06348470791      2.133538681e-09 
                   0                    9          -3.55996849         0.8435505338         0.2115664075         0.1092040838      1.054628641e-06      9.617946147e-32      1.385414332e-63          2.000477367          1.710401018          1.582080465         0.4769840514         0.7931276906        0.04117441381         0.2440664789       0.003514542493 
                   1                    2             0.034358            0.2871242        0.07201208825        0.03717042896      3.589700825e-07      3.273716253e-32      4.715615317e-64         0.6844337947         0.5938308818         0.5427812408         0.1610747592         0.3204212969       0.004741644635       -0.06962311471      0.0002557524696 
                   1                    1          15.09734871       -0.01765672857      -0.004428389862      -0.002285798882      -2.20748976e-08     -2.013174763e-33     -2.899871893e-65       -0.04720112719       -0.03021851351       -0.04243029306      -0.005772191353       -0.04651593192      -0.001769310456       -0.05022017503     -0.0002537847848 
                   0                   10          -2.10715738         0.4966296765         0.2122137804         0.2595809669       0.005369652825      2.187909529e-13      6.382891046e-27          2.843657112          2.858174835          1.716567884          1.379260689          0.291964991         0.4187836722        -0.2272302221          0.140462437 
                   1                    3            0.0175245         0.2850802937         0.1218170594         0.1490072418       0.003082341384      1.255925533e-13      3.663970439e-27          1.664971626          1.530189227         0.9863610621         0.7875585955         0.6317259358        0.08491321158         0.4601522818        0.05441731257 
                   1                    1          15.07673998       -0.01261929112      -0.005392322693      -0.006595916326     -0.0001364421327     -5.559447734e-15     -1.621883752e-28      -0.009661841323        0.06462785918       -0.06159342415        -0.0201025889         -0.116321677       -0.03634108952       -0.05352393561       -0.07712366567 
                   0                   11          -1.46645904         0.2550656365         0.1865259337         0.3396606554         0.2552676256      7.900762377e-05      9.149012878e-10           2.87163834          3.169592976           1.00921436          2.256237926        0.02288398163         0.6594852743       -0.05133893747          0.139041355 
                   1                    4           1.15955543        0.01881888955        0.01376199081        0.02506035876        0.01883379243      5.829227982e-06      6.750194391e-11         0.1307677312         0.1660166504        0.06422583314          0.176280553       -0.08985423887       -0.02909777778       -0.09428166293         0.5427838397 
                   1                    1          14.97471856       0.007648979675       0.005593591891        0.01018583877       0.007655036982      2.369302728e-06      2.743631581e-11          0.124532124        0.02673265765         0.1633488413       0.008468442761         0.3084394034        0.03823279172         0.3097742136          0.230834392 
                   0                    1           0.70003171       -0.09291955689       -0.07652426185        -0.1462828644        -0.1707923393     -0.0003693489971      -4.85612116e-08         -1.250342345         -1.442329477        -0.3214748966         -1.039043311       0.009039601177        -0.4958593727        0.06655424648         0.4924564653 
                   1                    2             0.034358         0.1861196802         0.1532795852         0.2930074233         0.3421003783      0.0007398132267      9.726905157e-08          2.351396102          2.647010879         0.7510851254          1.995643103       -0.07989198586         0.5104256066       -0.06183931993         0.4410722535 
                   1                    1          15.09734871       -0.01144544652       -0.00942594192       -0.01801851793       -0.02103749362     -4.549488111e-05       -5.9815691e-09        -0.1064689288          0.052676632        -0.1135824547       -0.07508204602        -0.3445676485        -0.1784637326        -0.3996583556        -0.2421889687 
                   0                    2           2.15284282        -0.4611892786        -0.2065895966        -0.2657240405      -0.008637289327      -2.57923298e-12     -9.067529912e-25         -2.874071933          -2.79520515         -1.701542127         -1.382111348        -0.6257221354        -0.2713979495        -0.2337048876       -0.08975236429 
                   1                    3            0.0175245         0.2796701115         0.1252781411         0.1611379004       0.005237744634      1.564074467e-12      5.498647127e-25          1.696254504          1.739061002          1.024668427         0.8527241808        -0.0334475956         0.3145850535        -0.3525788146         0.1219182251 
                   1                    1          15.07673998       -0.01237980539      -0.005545530045       -0.00713288895     -0.0002318526599     -6.923491899e-14     -2.434017027e-26       -0.03481615877        0.01766084841       -0.05100254744       -0.03418481195         -0.051841472       -0.01312955462        -0.1277118557         -0.077834035 
                   0                    3           2.79354116        -0.6336649244        -0.2484394354        -0.2746232419      -0.002288487474     -1.697684361e-15      -3.31670411e-31         -3.227732185         -3.130367749         -2.099911181         -1.366954918        -0.4995920587        -0.4152536852       -0.04042156059        -0.1795329637 
                   1                    4           1.15955543        0.02667865635        0.01045983463        0.01156222921      9.635024525e-05      7.147616334e-17      1.396403774e-32        0.07847945914       0.007777010536        0.08660279669        0.05888292651       -0.02758763817        0.05028260072         0.1079114423         0.3155722571 
                   1                    1          14.97471856        0.01084359944       0.004251423138       0.004699493876       3.91617723e-05      2.905164618e-17      5.675714315e-33        0.07655933832         0.0141576656         0.1006896798       0.001507875858         0.0963459801        0.02191368078         0.0887087724         0.1290456875 
                   0                    4           4.34127115        -0.9092325462        -0.1968793749       -0.07160755061     -3.252824998e-08     -4.514180833e-39     -3.503902196e-78         -1.594743168         -1.327567454         -1.337537228         -0.294117687        -0.5990193648       -0.02875419715         -0.242685948       -0.02439321008 
                   1                    1           1.27374784                   -0                   -0                   -0                   -0                   -0                   -0      -0.001620370788        0.09097591499     -1.305834883e-06      0.0002076286703      -0.004651832348        0.00023524935        -0.1053903626       0.005077164154 
                   1                    1          15.02113232                   -0                   -0                   -0                   -0                   -0                   -0       0.004819144868        0.04043614883       0.006369535964     -0.0009360208682       0.002682885982      7.936871574e-05       -0.03999020217       0.002063624706 
                   0                    5           4.96003191        -0.7670876899        -0.1273701437       -0.02139359605     -1.305446636e-11     -5.564966796e-55     -1.01559742e-109        -0.7184781234        -0.5824599444        -0.6412703903       -0.08503378022        -0.3551067801     -4.154228001e-05       -0.05914609593     -1.763582354e-23 
                   1                    2             0.034358          0.194869291        0.03235683472       0.005434782683      3.316328285e-12       1.41371208e-55     2.580001633e-110         0.1819516452         0.1445263768         0.1613181681        0.02271465723        0.08445553392      1.216204973e-05        0.05615688327     -2.069432508e-23 
                   1                    1          15.09734871       -0.01198350463       -0.00198978647     -0.0003342124513      -2.03937907e-13      -8.69363519e-57    -1.586574331e-111        -0.0121887051      -0.008388367329       -0.01119475947      -0.001100961684      -0.009178976682     -8.118601885e-07      -0.009902942281     -2.755082316e-25 
                   0                    6           6.41284302       -0.03310609311      -0.003390619691     -8.178337592e-05     -5.286943254e-21     -4.102448169e-93    -2.135373949e-183      -0.006580789099      -0.004884393529      -0.006278673339     -0.0003302003205      -0.004528943624     -1.104901801e-09      -0.001664797875     -2.517117171e-46 
                   1                    3            0.0175245         0.0065684551       0.000672720068      1.622633124e-05      1.048962476e-21      8.139512722e-94     4.236714935e-184       0.001305984508      0.0009692278013       0.001245848411      6.572516963e-05      0.0008979627953      1.937977605e-10      0.0003547609327      6.345228428e-47 
                   1                    1          15.07673998     -0.0002907575479      -2.97784539e-05     -7.182706146e-07     -4.643310376e-23     -3.603015814e-95    -1.875413361e-185     -5.812198426e-05       -4.2943153e-05     -5.552771757e-05     -2.835642913e-06     -4.064846926e-05     -1.002116495e-11     -1.787816689e-05     -2.223826242e-48 
                   0                   33          -5.72645924         0.1556494784        0.01699652913      0.0005572425416      5.117523741e-19      8.723557161e-87     7.008500837e-172        0.04035462443        0.02957840522        0.03838440517       0.002154064467        0.02728456266       4.92437779e-09         0.0136607438       2.77596951e-55 
                   1                    4           3.63635543       -0.06331882286      -0.006914255209     -0.0002266884678     -2.081828879e-19     -3.548777524e-87    -2.851085834e-172       -0.01643393345       -0.01200445278       -0.01563547036     -0.0008727991478       -0.01108764441     -2.522500296e-09      -0.005069505267     -3.054259676e-54 
                   1                    1          14.97471856       0.001243907224      0.0001358315207      4.453326987e-06      4.089782254e-21      6.971623598e-89     5.600998414e-174      0.0003631904095       0.000155514206      0.0003503091941      1.409785971e-05      0.0002895224308       3.79438509e-11      0.0004410045688      2.226229575e-57 
                   0                   25          -4.17872925         0.7091767466         0.1220831632        0.02302895094       3.74652031e-11      1.123147344e-52     4.151769392e-105         0.7251019996         0.5838926122          0.643194492        0.09088834476         0.3620744056       0.002554888945         0.1306229464      1.555619363e-06 
                   1                    1           3.75054784        -0.4123213341       -0.07098017947       -0.01338922606     -2.178258467e-11     -6.530073264e-53    -2.413873696e-105        -0.4217187495        -0.2962683481        -0.3758463224       -0.05102211503        -0.2194061501      -0.001534787191        -0.1389137455      2.192919368e-07 