ITEM: TIMESTEP
0
ITEM: NUMBER OF ENTRIES
600
ITEM: BOX BOUNDS pp pp pp
0 4.26
0 2.4768
0 30
ITEM: ENTRIES c_2[1] c_2[2] c_2[3] c_2[4] c_2[5] c_2[6] c_2[7] c_2[8] c_2[9] c_2[10] c_2[11] c_2[12] c_2[13] c_2[14] c_2[15] c_2[16] c_2[17] c_2[18] c_2[19] c_2[20] c_2[21] c_2[22] c_2[23] c_2[24] c_2[25] 
                   0                   78          -2.14301379      0.0008211754557      8.289450646e-05      1.533447561e-05      1.860362034e-06      8.729884419e-14      6.028782774e-23      3.107434354e-96      7.56976388e-188      0.0001548630878      0.0001158873399      0.0001538944929      7.621902064e-05      0.0001478078721      7.709531352e-06      0.0001246649414      6.930966035e-09      0.0001059911631      1.326743518e-11      5.274456319e-05      2.996386598e-31      3.192908241e-05      1.127311655e-55 
                   1                    3          -4.91842729       0.002325809605      0.0002347815415      4.343172999e-05      5.269090615e-06       2.47255917e-13      1.707528006e-22      8.801164986e-96     2.143979026e-187      0.0004386293655      0.0003282398581      0.0004358855041      0.0002158739903      0.0004186431339       2.18397932e-05      0.0003530848828      1.961389521e-08      0.0003001960583      3.742531278e-11      0.0001496018896      8.102067428e-31      9.078471185e-05      2.892783539e-55 
                   1                    1          15.07324118     -6.295101412e-05     -6.354662954e-06     -1.175535367e-06     -1.426146822e-07     -6.692297895e-15      -4.62164312e-24     -2.382147963e-97    -5.802953676e-189     -1.186809524e-05     -8.877193103e-06     -1.179387581e-05     -5.836663651e-06     -1.132750688e-05     -5.907264328e-07     -9.554674522e-06     -5.317577893e-10     -8.124777472e-06     -1.015704379e-12     -4.050855674e-06      -2.25877356e-32     -2.458022427e-06     -8.336829509e-57 
                   0                   79           -1.4910997         0.2136721995        0.03347922573        0.01427177207       0.004631578881      2.395754698e-07      5.543620808e-13       2.06197524e-59     5.702587266e-118         0.1708046374         0.1389997644          0.168401312         0.1013747851         0.1543323331         0.0181226176         0.1138479318      0.0001522044184         0.0902185745       1.30478982e-06        0.02235034684      3.678413901e-14      -0.006473478679      3.964144517e-24 
                   1                    4          -3.77594113         0.7047689454         0.1104267128        0.04707351624        0.01527663856      7.902073905e-07      1.828488591e-12      6.801147359e-59     1.880921534e-117         0.5635947563         0.4546349859         0.5554793163         0.3302458258         0.5076473038        0.06151245085         0.3659078667      0.0005420213614         0.2833925426      1.491406575e-05         0.1115537523      6.108217655e-14        0.04990898201      2.484725638e-24 
                   1                    1          14.97822691        -0.0100082528      -0.001568142956     -0.0006684795829     -0.0002169398378     -1.122154343e-08     -2.596592285e-14     -9.658144352e-61    -2.671051035e-119      -0.004190346262      -0.003870212249      -0.004054587505      -0.003250827247      -0.003281674525      -0.001002443309      -0.001410444792     -1.105362646e-05     -0.0007763540887     -9.183033355e-08      0.0006303925312     -2.183299365e-15       0.001372124844     -2.666033237e-25 
                   0                   68            0.0192368                   -0                   -0                   -0                   -0                   -0                   -0                   -0                   -0     -0.0004591682234      -0.007842905644     -0.0002386970373       -0.01103369568       0.001593739735      -0.002184502839        0.00851971901      0.0003928637354        0.01177473121      0.0001011589942        0.03387201675     -9.960292543e-06        0.04595975923     -2.117695782e-06 
                   1                    1          -3.74789979         0.8137120297         0.1388539779        0.06751915073        0.02547174737      3.870552671e-06      3.272168883e-11      3.518983774e-53     3.615938187e-106         0.8121003809         0.5556442856         0.7987167765         0.4219153721          0.724199725        0.09725863964         0.5249513548       0.003503926427         0.4143487817       0.001403106219         0.2224543535      0.0001474974754         0.1890347847       9.18203506e-06 
                   1                    1          14.90748383                   -0                   -0                   -0                   -0                   -0                   -0                   -0                   -0       0.008993341041       0.004245852102       0.009086427772      0.0006512640417       0.009667996507     -0.0007370364025        0.01153729268       1.96051777e-05        0.01264048309      2.117871889e-05        0.01253181341     -2.574608135e-06        0.01336546346     -5.473972543e-07 
                   0                   69           0.68398662       -0.02976075874      -0.003428187866     -0.0008393926093     -0.0001431411457     -8.085915376e-11     -9.490924336e-19     -4.082572251e-83    -5.133591319e-164      -0.009180014235      -0.006803813584      -0.009107365297      -0.004427484327      -0.008661460478      -0.000567901048       -0.00711417143     -1.683568027e-06      -0.006004557672     -3.608754894e-08      -0.004163112825     -3.282699977e-19      -0.004220313318      3.900792993e-32 
                   1                    2          -4.87009757         0.2720126376        0.03133355677       0.007672028783       0.001308306718      7.390507709e-10      8.674682607e-18      3.731461472e-82     4.692090437e-163        0.08432268921        0.06194317081         0.0836954881        0.04026588778        0.07981787229       0.004930122898        0.06602101927      1.173861375e-05        0.05599305626      1.814740024e-07        0.03493703306      4.129136725e-18        0.02910430365      2.649835878e-31 
                   1                    1          15.07931315      -0.007692775212     -0.0008861426843     -0.0002169722457     -3.700015403e-05     -2.090105629e-11     -2.453282462e-19     -1.055292672e-83    -1.326967648e-164       -0.00231409803      -0.001702883914      -0.002296572042      -0.001097107134      -0.002188395886     -0.0001375905273      -0.001807457903     -3.253608456e-07      -0.001539263251     -4.092514725e-09      -0.001132058643     -1.224842034e-19        -0.0011049284     -1.063695254e-32 
                   0                   70           2.11698641      -0.005986394338     -0.0006087816672     -0.0001144845588     -1.417684353e-05      -7.82213424e-13      -6.58298137e-22      -1.45454616e-94    -1.842118847e-185      -0.001169678684     -0.0008742846454      -0.001162798008      -0.000571397089      -0.001119432859     -5.489067389e-05     -0.0009529524762     -3.709513366e-08     -0.0008178640343     -7.214604879e-11     -0.0004288687711     -6.810329544e-30     -0.0002596259835     -1.148349711e-53 
                   1                    3          -4.91842729        0.01747655774       0.001777264804      0.0003342238898      4.138758835e-05      2.283577944e-12      1.921822178e-21      4.246372443e-94     5.377844255e-185       0.003414895902       0.002553789104       0.003394807191       0.001669887046       0.003268207379      0.0001602498355       0.002782063337      1.114085769e-07       0.002386840096      2.121617507e-10        0.00124594853      1.492334885e-29      0.0007533083461      1.872790972e-53 
                   1                    1          15.07324118     -0.0004730254062     -4.810394692e-05     -9.046197403e-06     -1.120208057e-06     -6.180796015e-14     -5.201657728e-23     -1.149335058e-95    -1.455582387e-186     -9.216650475e-05     -6.916900878e-05     -9.162043583e-05     -4.540318271e-05     -8.817828926e-05     -4.356832645e-06     -7.494262855e-05     -3.009518807e-09     -6.414497403e-05     -5.734944765e-12     -3.246260774e-05      -4.47417329e-31      -1.86879755e-05     -6.366627268e-55 
                   0                   71            2.7689005        -0.2533814804       -0.03371245346       -0.01087706122      -0.002561992387     -1.379419845e-08     -2.179646699e-15     -5.214946022e-71    -4.917693021e-141        -0.1260432647        -0.0974627315        -0.1249409238       -0.06628868346        -0.1182356386      -0.008558119496       -0.09547682066     -4.341437543e-05       -0.07907470314     -9.182680146e-07       -0.03702096857     -4.521331757e-18       -0.02481155051       -8.7539967e-32 
                   1                    4          -3.77594113         0.4590581959        0.06107777901        0.01970627094       0.004641632062      2.499132867e-08      3.948925863e-15      9.448061118e-71      8.90951968e-141         0.2286640144         0.1708202159         0.2266777316         0.1146355047         0.2145722647        0.01544345643         0.1731612475      7.613356383e-05         0.1430635251      1.794101327e-06        0.06932327658      6.082342881e-18        0.05167836945      3.154286614e-32 
                   1                    1          14.97822691      -0.006518974061     -0.0008673507207     -0.0002798439723     -6.591469074e-05      -3.54895795e-10     -5.607773808e-17     -1.341696236e-72    -1.265219273e-142      -0.002071898593      -0.007197802264      -0.002026137118      -0.006875436873      -0.001735898128     -0.0003668549297     -0.0005645592136     -3.308127285e-07      0.0005316981407     -3.530114441e-09       0.005580440489     -2.752208291e-19       0.009376451121     -5.391805367e-33 
                   0                   50           -5.7510999         0.1406566818         0.0152491971       0.003294146611      0.0004834843665      9.445806407e-11      3.361894261e-19       1.95412005e-87     4.208373126e-173        0.03541094217        0.02597186946        0.03517875122         0.0167446926        0.03373120042       0.001836875573        0.02841714124      2.307760698e-06        0.02437109062      3.579008469e-09        0.01485894199      2.873195219e-30         0.0119016474      7.400340701e-57 
                   1                    4          -1.29914113        0.06105755863       0.006619513085       0.001429953752      0.0002098753836      4.100323362e-11       1.45936228e-19       8.48262578e-88     1.826809687e-173        0.01538354891        0.01131022617        0.01528307168       0.007302304023        0.01465606928      0.0007954609257        0.01235022376      9.391317266e-07        0.01060493207      1.882688738e-09       0.006477337886       6.15459383e-30       0.005034941335      8.977625045e-56 
                   1                    1          14.97822691      -0.001724420499     -0.0001869518585     -4.038552504e-05     -5.927413771e-06     -1.158035437e-12     -4.121609656e-21      -2.39570892e-89    -5.159374439e-175     -0.0003770488392      -0.000363307095     -0.0003736466022     -0.0002865519212      -0.000352302045     -2.704620682e-05     -0.0002708655271     -3.303000285e-08      -0.000202385716     -4.801346473e-11       5.48940297e-05      -3.52247736e-32       0.000231309279     -9.072657654e-59 
                   0                   42           -4.2407634         0.7091767466         0.1220831632        0.06014235769        0.02302895094      3.894688774e-06       3.74652031e-11      1.123147344e-52     4.151769392e-105         0.7240609431         0.5812006541         0.7117392007         0.4216595945         0.6438938772        0.08880686639         0.4658705524       0.003861972681         0.3663537304       0.001533327676         0.1600365926      4.619959866e-05         0.1105828774      5.839074022e-07 
                   1                    1          -1.27109979         0.4123213341        0.07098017947        0.03496727337        0.01338922606       2.26440486e-06      2.178258467e-11      6.530073264e-53     2.413873696e-105         0.4210541768         0.3209349155         0.4140113014         0.2237377926         0.3761819781        0.04984341561          0.281237547       0.002900021371         0.2289553092       0.001018802498          0.140629608      1.478098608e-05         0.1284360765      1.084871407e-08 
                   1                    1          14.90748383                   -0                   -0                   -0                   -0                   -0                   -0                   -0                   -0       0.009662859745        -0.0158574984        0.00976504882       -0.02213567006        0.01043966316     -0.0008450206713          0.013774492       1.68512691e-06        0.01783206525      1.417777949e-05        0.04139806178     -2.144038474e-06        0.06445179109      -5.83300653e-08 
                   0                   43          -3.57601358         0.5473160958        0.08918307167        0.04043263051        0.01407964618      1.204693141e-06      5.099761114e-12       2.27185541e-56     2.471201351e-112         0.4856387884         0.3922835944         0.4782276916         0.2859778403         0.4349606775        0.05577316769         0.3093740691      0.0007112679425         0.2372195546      3.297732887e-05         0.1025279629      1.179906764e-13        0.05547586486     -2.664026018e-23 
                   1                    2          -2.39329757         0.5478865741        0.08927602893        0.04047477423        0.01409432167      1.205948816e-06      5.105076696e-12      2.274223409e-56     2.473777133e-112         0.4871736984         0.3947498376         0.4799005021         0.2877005918         0.4377153481        0.05446596993         0.3180180094      0.0007350590811         0.2487290134      3.071209193e-05        0.08537037379      5.305284641e-13        0.02288909209      1.101812593e-22 
                   1                    1          15.07931315       -0.02615810935      -0.004262364214      -0.001932413788     -0.0006729144771     -5.757640813e-08      -2.43735037e-13     -1.085797452e-57      -1.1810717e-113       -0.02147416418       -0.01760970888        -0.0211369942       -0.01303159328       -0.01919431984      -0.002512451019       -0.01360084202     -4.424570603e-05       -0.01000743152     -1.400766676e-06      -0.002442792819     -3.908134206e-14     -0.0009968123274     -9.881298916e-24 
                   0                   44          -2.14301379          0.463459832         0.1009422161        0.06804010264        0.03726640932       8.50308591e-05      1.927268692e-08      4.717866282e-39      7.441415562e-78         0.8186342927         0.7663165913         0.7945872255         0.5910205351         0.6838991125         0.1537287126         0.4199683041        0.02043345198         0.2928125804        0.01624394778         0.1198378785        0.01362145793         0.1000168903        0.01107425386 
                   1                    3          -2.44162729         0.7817733053          0.170271347         0.1147714047        0.06286172387      0.0001434317522      3.250955339e-08      7.958191114e-39      1.255232846e-77          1.382778913          1.095800678          1.342490269         0.8392203945          1.155303049         0.2585842398         0.7179767854        0.03495443167         0.5057633929        0.02682918239         0.2305748927         0.0179697023         0.2116030509        0.01127161404 
                   1                    1          15.07324118       -0.03552866349       -0.00773819386      -0.005215929717      -0.002856829491     -6.518434976e-06     -1.477437225e-09     -3.616699268e-40     -5.704562318e-79       -0.05467072682         0.1541709856        -0.0527475631          0.124125778        -0.0468074379       -0.01011331295       -0.03233893695      -0.001475104495       -0.02816136134      -0.001819789611       -0.03302126985      -0.005826763818       -0.04963966793      -0.007924166465 
                   0                   45           -1.4910997         0.3605180273         0.1291385557         0.1372176715         0.1265277702        0.01378807396      0.0003580572562      2.283182823e-18      1.169423259e-36          1.580777836           1.39170402          1.456667412          1.202277485          1.084795316         0.6145900518         0.4821388164         0.2322909486         0.2564110992         0.1918852149        0.03375782331          0.164350226        0.04386687266         0.1718593303 
                   1                    4          -1.29914113         0.5979067967         0.2141718703          0.227570807          0.209841972        0.02286704827      0.0005938256921      3.786580488e-18       1.93944841e-36          2.658544544          2.580694768          2.461750685          2.202690318          1.790503906          1.031061607         0.8353451695         0.3764403403         0.4785017879         0.2829926513        0.08254234043         0.1125011428        0.05029549603        0.03962427867 
                   1                    1          14.97822691       -0.01688640621      -0.006048757464       -0.00642717746      -0.005926470142     -0.0006458235096     -1.677114545e-05     -1.069426483e-19     -5.477494795e-38         0.0203841914        -0.3103156383        0.03719472059        -0.2564778064        0.01637183138       -0.03224684093        0.03251335808        -0.0250384471        0.02797470141       -0.04193279087        0.03096429163        -0.1454414171        0.05466517977        -0.2071280405 
                   0                   34            0.0192368                   -0                   -0                   -0                   -0                   -0                   -0                   -0                   -0        0.02327508895        -0.1265376511        0.03832159244        -0.1937353201        0.02760201438       -0.02649881302         0.2803068334       -0.05889666019         0.4007957701         -0.135047036         0.4931873507       -0.08638040186         0.5929175774       -0.01173062688 
                   1                    1          -1.27109979         0.5572350607         0.2433932895         0.2899488464         0.3048959963        0.08916197783       0.007813167168      8.180428237e-13      7.761829956e-26          3.226577406          3.257416065          2.961507997          2.858986073          2.000076394          1.584014888         0.8828841488         0.6375453221         0.5285684661         0.4381463088        0.07506755121         0.1748362194        0.03599951654         0.1506330951 
                   1                    1          14.90748383                   -0                   -0                   -0                   -0                   -0                   -0                   -0                   -0         0.1317431951          0.046755206         0.1414713207       -0.01262829666         0.1540919951       -0.03303289469         0.2089973233       -0.02844861473         0.2380925068       -0.04305270886          0.171197926       -0.02415399727         0.1650628454      -0.003111379947 
                   0                   35           0.68398662        -0.1574403203       -0.04222998615        -0.0355734982       -0.02513802418     -0.0003761375671     -8.512964463e-07      -1.91460513e-29      -2.68758253e-58        -0.4217132161        -0.3448631236        -0.4024631462        -0.2700816457        -0.3211549762        -0.1158460181        -0.1428390537       -0.02545959562       -0.07238381023       -0.02405665158        -0.1712557265       -0.00453511175        -0.3979010532       -0.00348456061 
                   1                    2          -2.39329757         0.8523919019         0.2286358293         0.1925971804         0.1360988608       0.002036432697      4.608973073e-06      1.036579388e-28      1.455074265e-57          2.311624746          2.014995869          2.213588177          1.598539016          1.799337757         0.5869579043          1.145948014         0.1287489545         0.8695829043        0.06188872845         0.3101758073        0.01037275628        0.09569805687       0.006034746813 
                   1                    1          15.07931315       -0.04069630765        -0.0109159109      -0.009195293961      -0.006497857495     -9.722674671e-05     -2.200492352e-07     -4.949009201e-30     -6.947056842e-59       -0.09686416157       -0.07290762907       -0.09235664217       -0.05178341858       -0.07625263887       -0.02432517429       -0.04956283454      -0.008360563978       -0.03834069321      -0.006666595944       -0.06900064362      -0.001163463297        -0.1144420164     -0.0009012964927 
                   0                   36           2.11698641        -0.4532570166       -0.09985178303        -0.0682197516       -0.03794521889     -9.695184339e-05     -2.522895582e-08     -1.854915792e-38     -1.155947082e-76        -0.8264410915        -0.6823862054        -0.8029660661        -0.5139276989        -0.6913964189        -0.1521042319        -0.4854374609       -0.02049999867        -0.3854482891      -0.005006267845        -0.1620941227     -6.826651697e-06        -0.1011835737     -2.171470173e-07 
                   1                    3          -2.44162729         0.7880715475         0.1736108792         0.1186127147          0.065974814      0.0001685687953      4.386522773e-08      3.225115785e-38        2.0098288e-76          1.439938868          1.178756103          1.399318898         0.8807372948          1.207162725         0.2623165566         0.8530614617        0.03656732029         0.6751289367       0.008172454894         0.3234066654      1.633223655e-05         0.2541645925      5.021019307e-07 
                   1                    1          15.07324118       -0.03581489497      -0.007889963068      -0.005390502846      -0.002998307757     -7.660819271e-06     -1.993510017e-09     -1.465694117e-39     -9.133917805e-78       -0.05732382867       -0.09554454281       -0.05552100104        -0.0940558234       -0.04711914195       -0.01153400706         -0.025880468      -0.002210441158      -0.007516421065     -0.0008277006276        0.09164328022     -5.956016875e-07         0.1806022818     -1.715854137e-08 
                   0                   37            2.7689005        -0.6474010617        -0.1700792115        -0.1404270635       -0.09698282364      -0.001224086656     -2.248685002e-06     -9.582728768e-30     -1.683004614e-59         -1.689382481         -1.464948557         -1.621788348         -1.152905873         -1.330440286        -0.4096101696        -0.8910779049       -0.08404673894        -0.6926424881       -0.02845779846        -0.2150711247      -0.003953966067        0.02226660114      -0.001894567428 
                   1                    4          -1.29914113         0.5897582832         0.1549358345         0.1279238308        0.08834774446       0.001115097406      2.048468383e-06      8.729509419e-30      1.533154594e-59          1.539824069          1.326323294          1.477468447           1.04519622          1.207827182          0.379133345         0.7553594532        0.07804205649         0.5590869975        0.03777513779         0.2593713806       0.004619466292         0.2292340025       0.002928817558 
                   1                    1          14.97822691       -0.01665627149      -0.004375781396       -0.00361289382      -0.002495164646     -3.149318232e-05     -5.785394881e-08     -2.465435129e-31     -4.330017888e-61        -0.0100263805       -0.03592154081      -0.007558558646       -0.04882049489        0.00331511546       -0.01524682898        0.03721503804      -0.003819299355        0.07074986552      -0.002053825796         0.1506530755     -0.0003785170394          0.111500041      -0.000450066296 
                   0                   38             4.279237        -0.7091767466        -0.1220831632       -0.06014235769       -0.02302895094     -3.894688774e-06      -3.74652031e-11     -1.123147344e-52    -4.151769392e-105        -0.7254968995        -0.5730419529        -0.7136715341        -0.4093057642        -0.6491223396       -0.08469503004        -0.4781541091      -0.004367592683        -0.3793677385      -0.001703198486        -0.1967573593     -6.819892642e-05        -0.1574349597     -1.261503404e-06 
                   1                    1          -1.27109979         0.4123213341        0.07098017947        0.03496727337        0.01338922606       2.26440486e-06      2.178258467e-11      6.530073264e-53     2.413873696e-105          0.422779224         0.3344844342         0.4156285947         0.2417444479         0.3758585836        0.05192317712         0.2695460836       0.001946284649         0.2104153004        0.00084273675        0.08644334033      5.729360185e-05        0.06125095992      1.784217622e-06 
                   1                    1          14.90748383                   -0                   -0                   -0                   -0                   -0                   -0                   -0                   -0       0.009848435775       -0.01759943036       0.009999625874       -0.02398433753        0.01096381349      -0.001217306279        0.01509895585     -1.211473042e-05        0.01909771417      4.859479034e-06        0.03841887622     -1.377302523e-06        0.06216477262     -8.203223025e-08 
                   0                   39           4.94398682        -0.2274752698       -0.02631449838      -0.006498387055      -0.001119455224     -6.788888451e-10     -8.635726309e-18     -6.847059532e-82    -1.836254677e-162       -0.07195716567       -0.05354545875       -0.07142970936       -0.03518170917       -0.06815313899      -0.004161273677       -0.05630972218     -6.456297464e-06       -0.04753680462     -1.656278904e-08       -0.02792252026     -1.102624555e-25       -0.02164922699     -9.151096045e-46 
                   1                    2          -2.39329757         0.1662384868        0.01923058447       0.004749008679      0.0008180957106      4.961306536e-10      6.310972067e-18       5.00381785e-82     1.341931363e-162         0.0525228303        0.03902055726        0.05213304547        0.02560512192        0.04971780068       0.003069186617        0.04106306692      5.132645353e-06        0.03466916687      1.009558187e-08        0.02060703762      1.182840481e-25        0.01673545259      4.592963862e-46 
                   1                    1          15.07931315      -0.007936833498     -0.0009181384525     -0.0002267350473     -3.905888201e-05     -2.368709237e-11     -3.013088935e-19     -2.389005693e-83    -6.406871235e-164      -0.002423000588      -0.001851919177      -0.002403170266       -0.00125892003      -0.002279567813     -0.0001568540159       -0.00182527541     -2.370929805e-07      -0.001479122208     -7.119946375e-10     -0.0007133322576     -4.067576831e-27     -0.0004846531316     -3.074528924e-47 
                   0                   16           -5.7510999         0.4813273688        0.06232390666        0.01913209163       0.004253672965      1.529769866e-08      1.507991429e-15      8.976313786e-73      8.48468234e-145         0.2208898797         0.1608149312         0.2190564257          0.106035469         0.2078340904        0.01430217282         0.1689329852      5.965793601e-05         0.1404603198      1.203721532e-06        0.07283220315      1.095652195e-18        0.05924751544      1.045461992e-33 
                   1                    4           1.17765887       0.002339042781      0.0003028672238      9.297368839e-05      2.067101039e-05      7.434019738e-11      7.328185957e-18      4.362100167e-75     4.123188553e-147       0.001052868068     -0.0006388559415       0.001043148666     -9.886101562e-05      0.0009775402407      8.179403867e-05      0.0006204497082      2.376659161e-07      0.0001258686207      1.430999817e-08      -0.002147068585     -4.170110555e-20      -0.002145993234     -4.277397082e-34 
                   1                    1          14.97822691      -0.005900969446      -0.000764077617     -0.0002345553057     -5.214911062e-05     -1.875464771e-10     -1.848764879e-17     -1.100476657e-74    -1.040203705e-146      -0.001736048433       0.002824786895       -0.00170249494       0.001429410142      -0.001494935318      -0.000263866483     -0.0007472202081     -8.388546935e-07     -0.0001874432958     -1.501019041e-08      0.0008575935362     -1.343245896e-20       0.001243533667     -1.281713793e-35 
                   0                    8           -4.2407634         0.9092325462         0.1968793749         0.1317844345        0.07160755061      0.0001541166679      3.252824998e-08      4.514180833e-39      3.503902196e-78          1.592980903          1.293483256          1.547611862         0.9649164921           1.33191614         0.2939962367         0.9382093237        0.03898965128         0.7441894482       0.008053918067         0.3604742114      2.972677149e-05         0.2915897296      1.012803288e-06 
                   1                    1           1.20570021                   -0                   -0                   -0                   -0                   -0                   -0                   -0                   -0      -0.000555767835        0.04122199489     -0.0006642290165        0.04347290031     -0.0007469746375      0.0003040424446      -0.004684106769      0.0008560127327       -0.01322532989      0.0008218141723       -0.06029305988     -2.791922644e-06       -0.07388135044     -6.674003148e-08 