ITEM: TIMESTEP
0
ITEM: NUMBER OF ATOMS
4
ITEM: BOX BOUNDS pp pp pp
0.0000000000000000e+00 4.2600002000000003e+00
0.0000000000000000e+00 2.4767999999999999e+00
0.0000000000000000e+00 3.0000000000000000e+01
ITEM: ATOMS id type c_1[1] c_1[2] c_1[3] c_1[4] c_1[5] c_1[6] c_1[7] c_1[8] c_1[9] c_1[10] c_1[11] c_1[12] c_1[13] c_1[14] 
1 1          13.95342112          12.59424581          6.095612756         0.3354433141      7.444749059e-05      2.172976429e-09          48.61205274          43.28081405          36.21165193           14.5291076          15.44880666          2.411549467          3.288229392         0.6397878378 
2 1          13.95414503          12.59420066          6.133178257         0.4134909768      0.0003900140107      1.292838569e-07          48.59242616          43.48635752          35.96792062          14.86384575          15.07151548          2.669842139          3.107742138         0.7658805007 
3 1          13.95524071          12.59520885          6.121041886         0.3933691317      0.0003793070404      1.290862848e-07          48.60599968          43.45677197          36.05086007           14.7538186          15.09981848          2.664394421          3.014395893         0.6529818582 
4 1          13.96577537          12.60680483          6.088983984         0.3135699039      6.374051547e-05      1.975404332e-09          48.63381553          43.29423045          36.33472426           14.4452433          15.49256675          2.447578681           3.26503713         0.7263501583 
