ITEM: TIMESTEP
0
ITEM: NUMBER OF ATOMS
4
ITEM: BOX BOUNDS pp pp pp
0.0000000000000000e+00 4.2600002000000003e+00
0.0000000000000000e+00 2.4767999999999999e+00
0.0000000000000000e+00 3.0000000000000000e+01
ITEM: ATOMS id type c_1[1] c_1[2] c_1[3] c_1[4] c_1[5] c_1[6] c_1[7] c_1[8] c_1[9] c_1[10] c_1[11] c_1[12] c_1[13] c_1[14] c_1[15] c_1[16] c_1[17] c_1[18] c_1[19] c_1[20] c_1[21] c_1[22] 
1 1          13.95347233          12.59388212          8.789647969          6.122380228          1.231191752         0.3866678162      0.0001669867591      1.362651535e-08          48.59731874           43.3985648          45.97718162          35.36328732          36.03274697          14.77370207          21.37897719          4.313637179          15.24522675          2.589324832          5.129850841         0.9021551315          3.269049066         0.7039477952 
2 1          13.95541211          12.59596616          8.790127895          6.118782277          1.219831968         0.3790546173      0.0001575688653      1.304287469e-08          48.58931438          43.35675588          45.97513454          35.30623832          36.07008364          14.73635622          21.44997946          4.282280911          15.31890949          2.561783221          5.146678629         0.9459468718           3.31425611          0.797626883 
3 1          13.96711886          12.60759266          8.790379299          6.097790319          1.149263097         0.3393439158      0.0001710018538      2.422694049e-08          48.61453214          43.33300054          46.04073506          35.25082376          36.26874191          14.53569573          21.56325392          4.186095652          15.33540061          2.538278173          5.013210585         0.9593354728           3.12184697         0.8037519381 
4 1          13.95732361          12.59775293          8.783635816           6.09713958           1.16408285         0.3479253097      0.0001804197497      2.481058116e-08          48.61870445          43.36610167          46.04943506          35.30570321          36.20530511          14.55448254          21.47747533          4.194176469          15.25525804          2.542925137          4.942074311         0.8576087244          3.003203612          0.572837194 
