ITEM: TIMESTEP
0
ITEM: NUMBER OF ATOMS
4
ITEM: BOX BOUNDS pp pp pp
0.0000000000000000e+00 4.2600002000000003e+00
0.0000000000000000e+00 2.4767999999999999e+00
0.0000000000000000e+00 3.0000000000000000e+01
ITEM: ATOMS id type c_1[1] c_1[2] c_1[3] c_1[4] c_1[5] c_1[6] c_1[7] c_1[8] c_1[9] c_1[10] c_1[11] c_1[12] c_1[13] c_1[14] 
1 1          13.95473927          12.59507929          6.111505748         0.3653184418      0.0001308792258      8.193384903e-09          48.54217091           43.4106364          36.07769532          14.68087795          15.12115058          2.608723566          2.994607527          0.730519123 
2 1          13.96423539          12.60539793          6.089637248         0.3158253903      6.971142801e-05       2.90296261e-09          48.58808553          43.29020109           36.2887837           14.4636184          15.40193456          2.454501379          3.159143253         0.7477773722 
3 1          13.94255137           12.5826743          6.091496823         0.3613801089      0.0003363945358      1.146142352e-07          48.55419929          43.25386977           36.1134415          14.54041324          15.30518904          2.372212933          3.162238597         0.4765269368 
4 1          13.94935492          12.58941316          6.124777848         0.4096607896      0.0003975623319      1.199046575e-07          48.57191472          43.42134448          35.94841694          14.81868408          15.02497294          2.610795306          3.038646381         0.6386505402 
