ITEM: TIMESTEP
0
ITEM: NUMBER OF ATOMS
4
ITEM: BOX BOUNDS pp pp pp
0.0000000000000000e+00 4.2600002000000003e+00
0.0000000000000000e+00 2.4767999999999999e+00
0.0000000000000000e+00 3.0000000000000000e+01
ITEM: ATOMS id type c_1[1] c_1[2] c_1[3] c_1[4] c_1[5] c_1[6] c_1[7] c_1[8] c_1[9] c_1[10] c_1[11] c_1[12] c_1[13] c_1[14] c_1[15] c_1[16] c_1[17] c_1[18] c_1[19] c_1[20] c_1[21] c_1[22] 
1 1          13.97143279          12.61267277          8.790341036          6.086052214           1.10176709         0.2995759187       4.29320909e-05      7.127404696e-10          48.64076408          43.29176098           46.0992094          35.15179513          36.41362397          14.39813589           21.7560296          4.090545061          15.53650368          2.456784014          5.182864333         0.9385915838          3.251628407           0.82249871 
2 1          13.95946994          12.59961367          8.792037683          6.118630486          1.212511682         0.3754844987       0.000248059404      5.380491695e-08          48.62246025          43.41855313          46.00866522          35.38904848          36.12111102           14.7103866           21.3490001          4.302557098          15.12576637           2.64016521          4.887767924         0.9749828943          3.038939432         0.7680867176 
3 1           13.9508439          12.59076431          8.792320181          6.136981383          1.280932619         0.4281345674      0.0003569369068      7.067357587e-08          48.58619901          43.46944587           45.9328528          35.47452783          35.93550565          14.90274506          21.23132719          4.380101973          15.07357095          2.649322674          4.931035526         0.9930475038          3.174119536         0.8338758798 
4 1          13.95622682           12.5967071          8.786849503          6.107950183          1.186841993         0.3555477431      0.0001518095999      1.758139939e-08          48.62929693          43.30002457          46.05013698          35.21788844          36.17460745          14.61890764           21.5865088            4.1689441          15.44102756          2.451895807          5.184897075         0.8812321581          3.368204641         0.7233014091 
