ITEM: TIMESTEP
0
ITEM: NUMBER OF ENTRIES
588
ITEM: BOX BOUNDS pp pp pp
0 4.26
0 2.4768
0 30
ITEM: ENTRIES c_2[1] c_2[2] c_2[3] c_2[4] c_2[5] c_2[6] c_2[7] c_2[8] c_2[9] c_2[10] c_2[11] c_2[12] c_2[13] c_2[14] c_2[15] c_2[16] c_2[17] c_2[18] c_2[19] c_2[20] c_2[21] c_2[22] c_2[23] c_2[24] c_2[25] 
                   0                   79          -1.46645904         0.2051115067        0.03114498068        0.01261976537       0.003864109894      1.321708277e-07      1.864714515e-13      1.382697044e-61     2.884160741e-122         0.1506062776          0.121885126         0.1486422625         0.0882044239         0.1370476762        0.01490451902         0.1027263018      9.693911362e-05         0.0820666894      7.209452271e-07        0.02143551934      8.231683185e-15      -0.005217460158      2.193147141e-25 
                   1                    4          -3.79404457         0.6716045714         0.1019792197        0.04132138782        0.01265240508      4.327720736e-07      6.105707149e-13      4.527418625e-61     9.443719515e-122          0.492703267         0.3956487011         0.4861003918         0.2855797406         0.4468433969        0.05037847913         0.3264918865      0.0003716806295         0.2532378366      9.549034143e-06         0.0993004483       1.32759455e-14        0.04547496203      1.336323209e-25 
                   1                    1          14.97471856       0.006150941252      0.0009339843952       0.000378445055      0.0001158780087      3.963575762e-09      5.591958063e-15      4.146470583e-63     8.649101929e-124       0.006386181029       0.004750514016       0.006346342338       0.003075161172       0.006110434215      0.0003030665982       0.005326749441      4.100149529e-06       0.004665528393      1.150070346e-07       0.002536798074      4.912821046e-17       0.001452137231      -1.87259102e-27 
                   0                   68           0.08127095                   -0                   -0                   -0                   -0                   -0                   -0                   -0                   -0     -4.604580939e-05      -0.009202501373      0.0001362652926       -0.01306589318       0.001845614864      -0.001997608394       0.009959715507      0.0004265883827        0.01516798669      9.003072124e-05        0.03939207072     -5.902505369e-05        0.05011733722     -9.228015708e-06 
                   1                    1          -3.67985216         0.8137120297         0.1388539779        0.06751915073        0.02547174737      3.870552671e-06      3.272168883e-11      3.518983774e-53     3.615938187e-106         0.8135713473         0.5545623472         0.8000696938          0.418968723         0.7266410816        0.09647502747         0.5325491627       0.005096352081         0.4252363532       0.002797971951         0.2293169235      0.0003073799946         0.1946985878      1.969517285e-05 
                   1                    1          15.02113232                   -0                   -0                   -0                   -0                   -0                   -0                   -0                   -0       0.001901282545      0.0001120876895        0.00194175887      -0.000986361768       0.002221555081     -0.0003468718644       0.003303045251      2.995648721e-05          0.004147693      1.036340803e-05       0.005825885233      -7.27046187e-06       0.006545505086      -1.13666879e-06 
                   0                   69           0.70003171        -0.0198669344      -0.002203880417     -0.0004995467409     -7.769324128e-05     -2.294671524e-11     -1.297309703e-19     -2.286971375e-86    -3.238177977e-170      -0.005372281946      -0.003928172195      -0.005333724298      -0.002515625394      -0.005095314923     -0.0003031109845      -0.004246572549     -5.746929538e-07       -0.00361998811     -6.117565287e-09      -0.002454490409     -1.020683589e-20      -0.002479036996      1.576188152e-37 
                   1                    2            -4.919242         0.1988421549        0.02205797444       0.004999812676      0.0007776082211      2.296667526e-10      1.298438157e-18      2.288960678e-85      3.24099468e-169        0.05404064789        0.03915021143         0.0536729387        0.02503363332        0.05138775335       0.002901923041        0.04311322686      4.684784449e-06         0.0369834227      3.576288946e-08        0.02373511322      6.540278423e-20        0.02003636409      2.158778948e-34 
                   1                    1          15.09734871       -0.00244712677     -0.0002714648702     -6.153210043e-05     -9.569931968e-06     -2.826481431e-12      -1.59797241e-20     -2.816996705e-87    -3.988653638e-171     -0.0006795717662      -0.000494407952     -0.0006750966837     -0.0003138721857     -0.0006472485184     -3.535325674e-05     -0.0005453622178     -6.589021633e-08     -0.0004682343314     -6.239876935e-10     -0.0003211873902     -9.175725947e-22     -0.0003101080379     -1.990422985e-36 
                   0                   71           2.79354116        -0.2329773369       -0.03039951362      -0.009465294691      -0.002139377474     -8.632093321e-09     -9.731971919e-16     -1.655279312e-72    -5.787495651e-144         -0.109351726       -0.08285670669        -0.1084432404       -0.05523178659        -0.1029054824      -0.007064434415       -0.08398320463     -3.274875839e-05       -0.07026164064     -6.082063635e-07       -0.03560201332     -2.500476124e-18       -0.02735073523     -2.948134629e-32 
                   1                    4          -3.79404457         0.4353108976        0.05680054436        0.01768560832       0.003997360176      1.612879751e-08      1.818388641e-15      3.092837838e-72     1.081375536e-143         0.2044522101         0.1508941479         0.2027526609         0.1002412642         0.1923695251        0.01323859022         0.1565364803      6.017145758e-05         0.1302134997      1.287491605e-06        0.06503139751      2.727198939e-18        0.05030395282       1.00824202e-32 
                   1                    1          14.97471856       0.003986827773      0.0005202120807      0.0001619749811      3.661012544e-05      1.477168116e-10      1.665384987e-17      2.832598922e-74     9.903859621e-146        0.00247226548      -0.003883598599       0.002468169574      -0.004316934976       0.002449103687      2.609836493e-05       0.002473881466       8.30231356e-07       0.002604403879      1.666059485e-08       0.004150680412      2.572307175e-21       0.006469899045     -3.030357154e-34 
                   0                   50          -5.72645924         0.0951336532        0.01007188745       0.002068310264      0.0002854541103      3.569945169e-11      7.707982045e-20      1.221767564e-89     3.317950964e-177        0.02197096685        0.01598151688        0.02183430264        0.01019992714        0.02098002253       0.001083373817        0.01781186319      1.178892024e-06        0.01537399978      1.701053469e-09        0.00963349514      8.576628959e-31        0.00783764144      1.857329137e-57 
                   1                    4          -1.31724457        0.04244180864       0.004493353356      0.0009227316042       0.000127349138      1.592653332e-11      3.438748413e-20      5.450650051e-90     1.480231602e-177       0.009809064114        0.00714683596        0.00974821427         0.0045675263       0.009367543763      0.0004826667436       0.007952963301      5.005459024e-07       0.006866927446       8.69669882e-10       0.004291562946      1.289078742e-30       0.003406219405      8.221598257e-57 
                   1                    1          14.97471856      0.0007602816252      8.049171563e-05      1.652935881e-05      2.281269641e-06       2.85300062e-13      6.160004288e-22      9.764025642e-92     2.651613879e-179      0.0001898743342      0.0001104864118       0.000188905473      5.437965598e-05      0.0001828914311      7.639119535e-06      0.0001615760556       8.48462346e-09      0.0001472872398      1.293116692e-11      0.0001453373155      6.854202122e-33      0.0001767356316      1.484325649e-59 
                   0                   42          -4.17872925         0.7091767466         0.1220831632        0.06014235769        0.02302895094      3.894688774e-06       3.74652031e-11      1.123147344e-52     4.151769392e-105          0.725226974         0.5719265921         0.7126509247         0.4103890469         0.6446486052        0.08946760807         0.4681632798       0.005143793667         0.3714004228       0.002573741388         0.1754723654      9.728327915e-05         0.1359809714      1.593329254e-06 
                   1                    1          -1.20305216         0.4123213341        0.07098017947        0.03496727337        0.01338922606       2.26440486e-06      2.178258467e-11      6.530073264e-53     2.413873696e-105         0.4219469101          0.307019761         0.4147440945         0.2118444089         0.3767190024        0.05034659778         0.2830655192       0.003570684624         0.2326895506        0.00154246902         0.1467840286      1.926232741e-05         0.1319326032     -2.261332186e-07 
                   1                    1          15.02113232                   -0                   -0                   -0                   -0                   -0                   -0                   -0                   -0       0.001876585084       -0.05986590444       0.001866997852       -0.05153109738       0.001820782251      6.240594528e-05       0.001958375766      1.011718074e-05       0.002806748862      2.874270694e-06        0.01417464659      -3.23906716e-06        0.02535897539     -1.000846292e-07 
                   0                   43          -3.55996849         0.5160772569        0.08093596486         0.0345526737        0.01123215133      5.880023765e-07      1.380269557e-12      5.751910372e-59     1.833231884e-117         0.4131060204         0.3320806144           0.40726829         0.2404428298         0.3727983877        0.04430994199         0.2689339525      0.0004429990108          0.207035741      1.766922423e-05        0.08898137396      2.090418223e-14        0.04730910254     -5.152169841e-25 
                   1                    2            -2.442442         0.5267000674        0.08260193137        0.03526389765        0.01146335124      6.001056765e-07      1.408680695e-12      5.870306316e-59      1.87096669e-117         0.4226062626         0.3400900552         0.4167516763         0.2457502952         0.3823830054        0.04424203764         0.2814604348       0.000439735633         0.2218506953       1.55441087e-05        0.08180338097      7.455144787e-14        0.02666420246       2.81214553e-24 
                   1                    1          15.09734871       -0.01080224087      -0.001694106407      -0.000723237265     -0.0002351051174     -1.230773729e-08     -2.889103137e-14     -1.203957749e-60    -3.837218578e-119      -0.009447388737      -0.006925957719      -0.009358222256      -0.004455617387      -0.008849130541     -0.0006598842276       -0.00745533648     -1.156198956e-05      -0.006621435862     -3.300224419e-07      -0.005245352718     -1.986564096e-15      -0.004109467541     -8.736253946e-26 
                   0                   44          -2.10715738         0.4587403159        0.09701751539        0.06311066575        0.03319147424      5.624178078e-05      8.867524556e-09      1.206751491e-40      5.148442212e-81         0.7579930129         0.6606749664         0.7359067386         0.5097804985         0.6403003039         0.1369535402          0.401603412        0.02046889929         0.2790868703        0.01728317505         0.1078421094        0.01766040212        0.08988047747        0.01827197228 
                   1                    3           -2.4592755         0.7825197119         0.1654925795         0.1076542398        0.05661805157      9.593728863e-05      1.512623269e-08      2.058477958e-40      8.782218123e-81           1.29642409          1.059342418          1.259132112         0.8071323168          1.092531653         0.2339240243         0.6897986277        0.03508226274         0.4853598344        0.02884826792          0.213388896        0.02437188717         0.1927686078        0.02025967988 
                   1                    1          15.07673998       -0.01165652773      -0.002465201595      -0.001603633254     -0.0008433907518      -1.42909584e-06     -2.253225677e-10     -3.066338782e-42     -1.308212017e-82        -0.0187202797        0.09958089342       -0.01804959283        0.09341956251       -0.01819666217      -0.002391023531       -0.01541845576     -0.0005189041492       -0.01598244023     -0.0007657625855       -0.03700696485      -0.003356215189         -0.066108127      -0.005977104378 
                   0                   45          -1.46645904         0.3716855338         0.1281236324          0.132634882         0.1186958274        0.01033591348      0.0002036582022       1.43493659e-19      4.685950611e-39           1.49033286           1.42557932           1.36826835          1.213249301          1.069160069         0.5758886046         0.5055586302          0.225663397         0.2726744485         0.1902799549        0.02505439258         0.1992451006        0.04175395586         0.2585319373 
                   1                    4          -1.31724457          0.622223775         0.2144866101         0.2220387114         0.1987039018        0.01730293627      0.0003409359899      2.402169524e-19      7.844561096e-39          2.601600439          2.471610821          2.411393588          2.103751718          1.778120573         0.9757897218         0.8581563894         0.3704628333          0.495864665         0.2906490678        0.08535774466         0.1557781871        0.04434105724        0.09132265039 
                   1                    1          14.97471856        0.01114620979       0.003842207336       0.003977491954       0.003559483684      0.0003099562655      6.107359153e-06      4.303127996e-21      1.405235981e-40         0.1110110072         -0.101876758         0.1134209616        -0.1069000663        0.07464755598       0.008857828528        0.07100832886       0.002918521172        0.06820110336      -0.003617778252        0.06445868011       -0.04653675354        0.09761334629       -0.09016313591 
                   0                   34           0.08127095                   -0                   -0                   -0                   -0                   -0                   -0                   -0                   -0        0.03130782476        -0.1537678109        0.05017506508        -0.2326761521        0.02920774852       -0.02561731059         0.2861678905       -0.08155132832         0.4656882566        -0.1616971124          0.654214329        -0.1053085631         0.6398978904       -0.01571345974 
                   1                    1          -1.20305216         0.5572350607         0.2433932895         0.2899488464         0.3048959963        0.08916197783       0.007813167168      8.180428237e-13      7.761829956e-26          3.227468782          3.258902866          2.956053939          2.857461721          1.990115247          1.601268011         0.9040718832         0.6649342311         0.5690498695         0.4598098729        0.09442093989         0.1805920524        0.03940841434         0.1535546797 
                   1                    1          15.02113232                   -0                   -0                   -0                   -0                   -0                   -0                   -0                   -0        0.03020483757      -0.003253886162        0.03394298342       -0.02238389782        0.03528726183       -0.00970021118        0.06576362419       -0.01298793481        0.08843073699       -0.02214746344        0.09209899789       -0.01342388155        0.08169861509      -0.001948753759 
                   0                   35           0.70003171        -0.1448662575       -0.03739448857       -0.03034446299       -0.02054531871     -0.0002238746354     -3.434663986e-07     -3.481468041e-31     -1.016424551e-61        -0.3589854014        -0.2858104982        -0.3430871279        -0.2204429475        -0.2779936915       -0.09375664646        -0.1297154694       -0.02346506844       -0.06775940243       -0.02292664436        -0.1009663769      -0.003355927525        -0.3270577555      -0.001923748941 
                   1                    2            -2.442442         0.8700463075         0.2245860233         0.1822445642          0.123392286        0.00134455948      2.062810739e-06      2.090920595e-30      6.104502474e-61          2.190996183          1.886526089             2.102624          1.478548242          1.727601561         0.5306160479          1.127175547         0.1157154403         0.8774352507        0.05697133429         0.3901976356       0.007608670802         0.1725650207       0.004849378301 
                   1                    1          15.09734871       -0.01784402615      -0.004606098364      -0.003737705386      -0.002530687342      -2.75759512e-05     -4.230676972e-08     -4.288328271e-32     -1.251989703e-62       -0.04972846502       -0.03655201512       -0.04804160037        -0.0251076568       -0.04194460868      -0.009182402189       -0.02989557579      -0.003089889522       -0.02366476954      -0.002892552591       -0.02364908491     -0.0004115925432        -0.0452710511     -0.0002368543124 
                   0                   36           2.15284282        -0.4410450738       -0.09517906385        -0.0634520219       -0.03431868773     -7.139761619e-05     -1.445820185e-08     -1.442988581e-39     -7.419474904e-79        -0.7700274939        -0.5767739995        -0.7486903341        -0.4135542444        -0.6477031479        -0.1378546171        -0.4638729578       -0.01892665754        -0.3781292503      -0.005096912356        -0.2118894366     -8.094965003e-07        -0.2082145173     -6.811736745e-12 
                   1                    3           -2.4592755          0.794774045         0.1715150085         0.1143421004        0.06184311737      0.0001286602563       2.60540345e-08       2.60030083e-39      1.337007583e-78          1.390722479          1.156067367          1.352356804         0.8679124956          1.169561357         0.2489966672          0.829960091        0.03311341632         0.6576872487       0.006852397591         0.2968744739     -8.707155907e-08         0.2092911203     -2.170721796e-12 
                   1                    1          15.07673998       -0.01183907006      -0.002554912575        -0.0017032566      -0.000921224094     -1.916541938e-06      -3.88104697e-10     -3.873446032e-41     -1.991625991e-80       -0.02119378737       -0.06245921398       -0.02059702027       -0.06218268513       -0.01770021439      -0.003929442166      -0.009687565466     -0.0006364004352      -0.002514241148     -0.0002496216129         0.0393301697     -6.128027009e-08        0.08556110621     -5.489067745e-13 
                   0                   37           2.79354116         -0.636309513        -0.1652701236        -0.1349367351       -0.09200483145      -0.001056044593     -1.726778492e-06     -2.908880249e-30     -1.602095672e-60         -1.627073071         -1.415295545         -1.562904942          -1.11633335         -1.283042642        -0.3918927294        -0.8602667767       -0.07587325234        -0.6669094246       -0.02348682798        -0.1653637746      -0.003028346394        0.07369958473      -0.001024518805 
                   1                    4          -1.31724457         0.6078572528          0.157880153         0.1289031068        0.08789088163        0.00100882409      1.649566459e-06      2.778811129e-30      1.530458769e-60          1.554467883          1.336903971           1.49283901          1.054033738          1.219614375          0.380949709         0.7525340193        0.07111706057         0.5470156874        0.03039234978         0.2726461578       0.003792353993         0.2680465597        0.00201717562 
                   1                    1          14.97471856        0.01088885499       0.002828187186       0.002309106672       0.001574433901      1.807157713e-05      2.954951989e-08       4.97782519e-32      2.741588347e-62        0.04698903415        0.02177794739        0.04660695662       0.002786322968         0.0461757664       0.001151889602        0.05577503484       0.001121132386        0.06968609227      0.0007950138257         0.1018177791      3.647475765e-05        0.07803287915     -4.141523983e-06 
                   0                   38           4.34127115        -0.7091767466        -0.1220831632       -0.06014235769       -0.02302895094     -3.894688774e-06      -3.74652031e-11     -1.123147344e-52    -4.151769392e-105        -0.7276812034        -0.5489856231        -0.7155570334        -0.3876093281        -0.6491208517       -0.08707119175        -0.4737577985      -0.004235299279        -0.3736445573      -0.001450015233        -0.2014514014     -2.993841997e-05        -0.1752395278     -2.433505069e-07 
                   1                    1          -1.20305216         0.4123213341        0.07098017947        0.03496727337        0.01338922606       2.26440486e-06      2.178258467e-11      6.530073264e-53     2.413873696e-105         0.4234569832         0.3612674108         0.4161563276         0.2665976256         0.3753106195        0.05323913716         0.2661329207       0.001792927114         0.2067277838       0.000695657231        0.08129054559      2.596348888e-05        0.04748839148      3.728476593e-07 
                   1                    1          15.02113232                   -0                   -0                   -0                   -0                   -0                   -0                   -0                   -0       0.002068067434       -0.03766469132       0.002108835714       -0.03459844043       0.002325055157     -0.0002859420405       0.003008698619     -3.044679175e-05       0.003627359708     -6.853442911e-06       0.009592215526      3.916593377e-07        0.01969013773      1.058952019e-08 
                   0                   39           4.96003191        -0.2078306107       -0.02378590914      -0.005748200528     -0.0009651010015     -4.888261625e-10     -5.071522905e-18     -8.552871793e-83    -3.374651391e-164       -0.06327146878       -0.04705442896       -0.06280931331       -0.03089777648       -0.05993448811      -0.003649899714       -0.04949211207     -5.298753953e-06       -0.04172860703      -1.31954573e-08       -0.02475536956     -9.076466671e-26       -0.01954435577      -1.28496395e-45 
                   1                    2            -2.442442         0.1583061786        0.01811791039       0.004378448663      0.0007351248741       3.72342657e-10        3.8630181e-18       6.51478839e-83     2.570497984e-164        0.04811742211        0.03561716744        0.04776142567         0.0233122137        0.04555195716       0.002806630431        0.03759270827      4.304181301e-06        0.03170363506      8.199473571e-09         0.0190877466      1.323783144e-25        0.01576605575      1.187898488e-45 
                   1                    1          15.09734871      -0.003246746255     -0.0003715853559     -8.979884377e-05     -1.507688426e-05     -7.636481014e-12     -7.922773237e-20     -1.336136403e-84    -5.271907122e-166      -0.001022426958     -0.0007090744799      -0.001015511385     -0.0004340271482     -0.0009725628069     -5.454827824e-05     -0.0008179326422     -8.658002847e-08     -0.0007062285636     -2.507311609e-10     -0.0005513892362     -2.689293621e-27     -0.0005826589947      -2.42665344e-47 
                   0                   16          -5.72645924         0.4600454129        0.05880207921        0.01762170041       0.003809756696      1.126979091e-08      8.848847338e-16      8.913371373e-74     9.216442639e-147         0.2031380686         0.1495054937         0.2015012179        0.09878376695         0.1914467715        0.01280307012         0.1561840905      4.562134674e-05         0.1300584201       8.54410641e-07        0.06674913129      9.332773741e-19        0.05331547121       1.82605033e-33 
                   1                    4           1.15955543       0.009045477784       0.001156174774      0.0003464803584      7.490797341e-05      2.215882182e-10      1.739872842e-17      1.752559649e-75     1.812149949e-148       0.003973459642       0.000608905674       0.003941338721       0.000496299539       0.003734891425      0.0002601569518       0.002868929789      5.755125196e-08        0.00205133511      3.355491785e-08     -0.0008413320454     -1.964116893e-20      -0.001814879485      -1.09500845e-33 
                   1                    1          14.97471856       0.003676554641      0.0004699298182      0.0001408277153      3.044651304e-05        9.0065026e-11      7.071752013e-18      7.123317822e-76     7.365523926e-149       0.002113162044      0.0004524881735        0.00210575364      0.0001780710962       0.002061131144      5.708804826e-05       0.001907923939      3.893790672e-07        0.00176743207      6.867312844e-09      0.0007410834492      7.458492498e-21     -8.270067962e-05      1.459328498e-35 
                   0                    8          -4.17872925         0.9092325462         0.1968793749         0.1317844345        0.07160755061      0.0001541166679      3.252824998e-08      4.514180833e-39      3.503902196e-78          1.595424526          1.308584394          1.549593906         0.9811289254          1.331398456         0.2972705701         0.9367544459          0.038417718         0.7429492266       0.007578501304         0.3476317851      5.542843265e-05         0.2661526431      1.423014554e-06 
                   1                    1           1.27374784                   -0                   -0                   -0                   -0                   -0                   -0                   -0                   -0     -5.525477206e-05        0.06275077282     -0.0001335576103        0.07013976898     -0.0007991427644      0.0007931786291       -0.00703612893      1.660618516e-05       -0.01728347031       6.07755835e-06       -0.08824498296      6.177798054e-07        -0.1655640557     -4.025408193e-09 
                   1                    1          15.02113232                   -0                   -0                   -0                   -0                   -0                   -0                   -0                   -0       0.005066690461        0.02785753309       0.005048877325        0.02865081432       0.004778007143      0.0002904550706       0.004709518229     -0.0003133270496       0.003734214636     -0.0001837902544        -0.0273757529      2.780005267e-07       -0.06348470791      2.133538681e-09 
                   0                    9          -3.55996849         0.8435505338         0.2115664075         0.1667515647         0.1092040838       0.000929898906      1.054628641e-06      9.617946147e-32      1.385414332e-63          2.000477367          1.710401018          1.922578478          1.335781418          1.582080465         0.4769840514          1.023081526        0.09316734955         0.7931276906        0.04117441381         0.3783529397       0.005995451157         0.2440664789       0.003514542493 
                   1                    2             0.034358            0.2871242        0.07201208825        0.05675819964        0.03717042896      0.0003165150975      3.589700825e-07      3.273716253e-32      4.715615317e-64         0.6844337947         0.5938308818         0.6581542967         0.4634115364         0.5427812408         0.1610747592         0.3877587529        0.02882388114         0.3204212969       0.004741644635         0.1273758824        0.00130871671       -0.06962311471      0.0002557524696 
                   1                    1          15.09734871       -0.01765672857      -0.004428389862      -0.003490350606      -0.002285798882     -1.946412447e-05      -2.20748976e-08     -2.013174763e-33     -2.899871893e-65       -0.04720112719       -0.03021851351       -0.04600185811       -0.01559414341       -0.04243029306      -0.005772191353       -0.04231712824      -0.002827894215       -0.04651593192      -0.001769310456       -0.06415214365     -0.0002492791741       -0.05022017503     -0.0002537847848 
                   0                   10          -2.10715738         0.4966296765         0.2122137804         0.2500201487         0.2595809669         0.0689682836       0.005369652825      2.187909529e-13      6.382891046e-27          2.843657112          2.858174835          2.568747509          2.545479925          1.716567884          1.379260689         0.6571228117         0.5782686851          0.291964991         0.4187836722        -0.2156113019         0.1575664793        -0.2272302221          0.140462437 
                   1                    3            0.0175245         0.2850802937         0.1218170594         0.1435190461         0.1490072418        0.03958985834       0.003082341384      1.255925533e-13      3.663970439e-27          1.664971626          1.530189227          1.518688534          1.273585772         0.9863610621         0.7875585955         0.6476538171         0.2476021655         0.6317259358        0.08491321158         0.5650113705         0.0553024127         0.4601522818        0.05441731257 