ITEM: TIMESTEP
0
ITEM: NUMBER OF ATOMS
4
ITEM: BOX BOUNDS pp pp pp
0.0000000000000000e+00 4.2600002000000003e+00
0.0000000000000000e+00 2.4767999999999999e+00
0.0000000000000000e+00 3.0000000000000000e+01
ITEM: ATOMS id type c_1[1] c_1[2] c_1[3] c_1[4] c_1[5] c_1[6] c_1[7] c_1[8] c_1[9] c_1[10] c_1[11] c_1[12] c_1[13] c_1[14] c_1[15] c_1[16] c_1[17] c_1[18] c_1[19] c_1[20] 
1 1          13.96121956          12.60130315          6.116817997          1.212347879         0.5833746461         0.3840096658      0.0002767035112      4.950899201e-08          49.38928989          45.91227898          41.27861644          23.47676007          21.46447448          4.275961176          15.29012547          2.574569462          5.062560553         0.9471062619          3.232855881         0.7796410657 
2 1          13.96316564          12.60347086          6.116547321          1.205168846         0.5760880053         0.3775890859      0.0002604190642      4.702081369e-08          49.40780056          45.92051593          41.29446733          23.47056828          21.48966194          4.286121906          15.31578037          2.596293428          5.076875011         0.9515699673          3.212896364         0.7326984402 
3 1          13.96577744           12.6065333          6.109255976          1.173162901         0.5430001315         0.3469669147      0.0001015116194      5.179050662e-09           49.3931155          45.91090604          41.34709965          23.39999361          21.54149333          4.232807499          15.36126085          2.563900117          5.137498902         0.9467161656          3.233892416         0.7873990949 
4 1           13.9633941          12.60420003          6.110601426           1.18212593         0.5511400648           0.35380171      0.0001177960669      7.667228977e-09          49.39683418          45.89217035          41.33155332            23.418508           21.5103059          4.235375722          15.32376889          2.557547973           5.08816814         0.9474428264          3.223365016         0.7998435559 
