ITEM: TIMESTEP
0
ITEM: NUMBER OF ATOMS
4
ITEM: BOX BOUNDS pp pp pp
0.0000000000000000e+00 4.2600002000000003e+00
0.0000000000000000e+00 2.4767999999999999e+00
0.0000000000000000e+00 3.0000000000000000e+01
ITEM: ATOMS id type c_1[1] c_1[2] c_1[3] c_1[4] c_1[5] c_1[6] c_1[7] c_1[8] c_1[9] c_1[10] c_1[11] c_1[12] c_1[13] c_1[14] 
1 1          13.94787614          12.58804777          6.116479049         0.3854975342      0.0002095477195      2.357644284e-08          48.57981106          43.31435592          36.02648481          14.72661823          15.36643831          2.559175771           3.40625962          0.590105467 
2 1          13.95102154          12.59121634          6.136068457         0.4167134861      0.0002364111768      2.480073419e-08          48.57535851           43.4373605          35.91971278          14.89751855          15.17059013          2.691676362          3.310406946         0.7152586353 
3 1          13.95297206          12.59312102          6.094228148          0.345938283      0.0001723735463      2.208002995e-08          48.58458358          43.37487875          36.18248665          14.53756068          15.16176418          2.539904268          2.894528799          0.567816732 
4 1          13.97041191          12.61113588          6.083870464         0.3111537694      0.0001455100725       2.08557386e-08          48.61087301          43.30127244          36.37190984          14.40357357          15.40014486          2.481894965          3.071165644         0.7827747799 
