ITEM: TIMESTEP
0
ITEM: NUMBER OF ATOMS
4
ITEM: BOX BOUNDS pp pp pp
0.0000000000000000e+00 4.2600002000000003e+00
0.0000000000000000e+00 2.4767999999999999e+00
0.0000000000000000e+00 3.0000000000000000e+01
ITEM: ATOMS id type c_1[1] c_1[2] c_1[3] c_1[4] c_1[5] c_1[6] c_1[7] c_1[8] c_1[9] c_1[10] c_1[11] c_1[12] c_1[13] c_1[14] 
1 1          13.96265521          12.60343781          6.114415493         0.3583219746       0.000103724243      4.197136355e-09          48.59350719          43.33346025          36.18115016          14.66987893          15.39448752          2.531079667           3.33751766         0.8789217698 
2 1          13.95891065          12.59924735           6.12686972         0.3909668206      0.0001972494172      2.297123328e-08          48.60714831          43.38926868          36.06806968          14.79426076          15.22291829          2.611550933          3.242979672         0.8497881188 
3 1           13.9611178          12.60141664          6.112405907         0.3695533806      0.0002095634854      2.632451019e-08          48.64747532          43.40012743          36.16926424          14.66601916          15.22984099           2.59866147          3.098839602         0.7027479525 
4 1          13.96808835          12.60873063          6.099593859          0.335882982      0.0001160383098      7.550413263e-09          48.63643148          43.26588312           36.3002627          14.53624361          15.41652403          2.519399175          3.230017551         0.8011228887 
