ITEM: TIMESTEP
0
ITEM: NUMBER OF ATOMS
4
ITEM: BOX BOUNDS pp pp pp
0.0000000000000000e+00 4.2600002000000003e+00
0.0000000000000000e+00 2.4767999999999999e+00
0.0000000000000000e+00 3.0000000000000000e+01
ITEM: ATOMS id type c_1[1] c_1[2] c_1[3] c_1[4] c_1[5] c_1[6] c_1[7] c_1[8] c_1[9] c_1[10] c_1[11] c_1[12] c_1[13] c_1[14] 
1 1          13.94903241          12.58947419          6.106550162         0.3657848619      0.0001255109267      7.059671965e-09          48.58588481          43.34654828          36.09084587          14.65255049          15.15756335          2.517994409          3.056435504         0.6537474371 
2 1          13.96341324           12.6043455          6.100909971         0.3353751105      9.201963003e-05      4.921713664e-09          48.59661288          43.29663499          36.23447065          14.56165363          15.34606155          2.486558232          3.185763405         0.8271969852 
3 1          13.95851591          12.59907641          6.103477195         0.3524558851      0.0001452593757      1.571569745e-08          48.58974765          43.28662329          36.17781438          14.59911976          15.36240505           2.49574646          3.242386997         0.7843248219 
4 1          13.95720656          12.59765298          6.121030109         0.3828170259      0.0001787506722      1.785365575e-08          48.55630927          43.40597577          36.05714578          14.75789774          15.15789159          2.607045742          3.133829073         0.8303120597 
