ITEM: TIMESTEP
0
ITEM: NUMBER OF ENTRIES
594
ITEM: BOX BOUNDS pp pp pp
0 4.26
0 2.4768
0 30
ITEM: ENTRIES c_2[1] c_2[2] c_2[3] c_2[4] c_2[5] c_2[6] c_2[7] c_2[8] c_2[9] c_2[10] c_2[11] c_2[12] c_2[13] c_2[14] c_2[15] c_2[16] c_2[17] c_2[18] c_2[19] c_2[20] c_2[21] c_2[22] c_2[23] 
                   0                   78          -2.21960018         0.4604485703        0.09186063319        0.02684722448       2.46307563e-05      8.579831335e-08      1.839614228e-09      6.546193082e-44      1.658987467e-87         0.6742771927          0.653623525         0.6191070005         0.2435480066         0.3750422473        0.01375780035         0.2670615498        0.01200418417        0.09799734382        0.01118498574        0.07630387171       0.009876209949 
                   1                    3          -2.56193001         0.7671520753         0.1530487441        0.04473008562      4.103723419e-05      1.429483299e-07      3.064976121e-09      1.090659399e-43       2.76403438e-87          1.120761412          0.948713528          1.026794123          0.383609357         0.6102077108        0.02297930927         0.4388237087        0.01936281361         0.2093950733        0.01326735655         0.1915298766       0.008252852408 
                   1                    1          15.08362272       -0.03412400112      -0.006807822963      -0.001989656994     -1.825393779e-06     -6.358542365e-09       -1.3633444e-10     -4.851406096e-45      -1.22948129e-88       -0.04914731599        0.01440167161       -0.04568920639      -0.004179729936        -0.0314651443     -0.0009743250987       -0.02628560775      -0.001097664409       -0.02674216869      -0.002677689775       -0.03916306587       -0.00355673997 
                   0                   79          -1.43960808         0.2244263291        0.03580457979       0.005266714104      3.441130537e-07      1.757324717e-10      1.053647017e-12      3.602711444e-58     1.589243413e-115         0.1897632472         0.1660331543         0.1807145068        0.05209666659         0.1297291801      0.0002603283914          0.104182455      6.807808358e-05        0.02679350802      5.284394541e-05      -0.005340226714      4.242884916e-05 
                   1                    4          -3.62897178         0.7205924883         0.1149620517        0.01691046962      1.104884986e-06      5.642452894e-10      3.383070643e-12      1.156765703e-57     5.102774126e-115         0.6061453375         0.5302876769         0.5746501381         0.1742105752         0.3934216941      0.0008726622395         0.3025834995      0.0002055624861          0.108791406      0.0001602333237        0.04626999493      0.0001307839429 
                   1                    1          14.97675424      -0.009445167603      -0.001506865341     -0.0002216540173     -1.448228235e-08     -7.395846355e-12     -4.434360579e-14     -1.516230896e-59    -6.688462292e-117      -0.004965500654       -0.00460188024      -0.004541446494      -0.001997668963      -0.002350310693     -1.142856685e-05      -0.001514662643      1.532213775e-08      0.0004103234949     -2.157545654e-07       0.001296379963     -6.266710799e-07 
                   0                   68           0.09243691                   -0                   -0                   -0                   -0                   -0                   -0                   -0                   -0      0.0006350993324      -0.007676014156       0.001481196736      -0.009532753698        0.01098917385      0.0005390686338         0.0167769322      0.0001069662554        0.04628397459      -0.000115352854        0.05468880847     -3.249385288e-05 
                   1                    1          -3.66345148         0.8137120297         0.1388539779        0.02547174737      3.870552671e-06      3.640260861e-09      3.272168883e-11      3.518983774e-53     3.615938187e-106         0.8175201368          0.593865189         0.7711571091         0.2177590531         0.5454409714       0.006470401656         0.4409251071       0.003593621623          0.245170356      0.0006232367932         0.2060686193      7.354318003e-05 
                   1                    1          14.91227686                   -0                   -0                   -0                   -0                   -0                   -0                   -0                   -0       0.006855777187       0.004334217369        0.00702664629      -0.000732965539       0.008189438628      2.497214431e-05       0.008837833942      1.116563514e-05       0.009058163365     -1.716903127e-05       0.009023148849     -4.836361604e-06 
                   0                   69           0.62197932       -0.01675097485      -0.001855602115     -6.499495491e-05      -1.87233903e-11     -2.107135556e-16     -1.029341707e-19     -1.473780733e-86    -1.615465513e-170       -0.00456060707      -0.003722802783      -0.004442656679     -0.0008182235663      -0.003616443716     -3.127139001e-07       -0.00310232586      1.749705093e-10      -0.002093075548      4.314464925e-31      -0.002168204524      3.283624849e-58 
                   1                    2          -4.91518994         0.1962930004          0.021744508      0.0007616305811      2.194063625e-10       2.46920531e-15      1.206213811e-18      1.727020932e-85     1.893051452e-169        0.05373139563        0.04347098976        0.05243072124       0.009461867945         0.0430900702      3.074928474e-06        0.03722809257      3.905274914e-09        0.02468513933      4.266676583e-31        0.02105414881      1.661553376e-58 
                   1                    1          14.99109357      -0.002493203003     -0.0002761864792     -9.673802166e-06     -2.786775895e-12     -3.136245349e-17     -1.532064765e-20     -2.193564603e-87    -2.404447207e-171     -0.0006272719663     -0.0005095681143      -0.000610897368     -0.0001105930443     -0.0004959462106      -5.04274575e-08      -0.000426686994     -8.889132219e-11     -0.0003141945134     -3.292301997e-32     -0.0003241311323     -2.024926949e-59 
                   0                   70           2.04040002        -0.4091865328       -0.08676564669       -0.02988971645      -5.20304166e-05     -2.895873899e-07     -8.477520233e-09     -1.498560804e-40     -8.864167704e-81        -0.6958419428        -0.5708380549        -0.6337409333        -0.2096202447        -0.4321456448       -0.01880215023        -0.3580315477       -0.00629676424        -0.2385045619      -5.93302328e-06        -0.2493911722     -4.797173503e-10 
                   1                    3          -2.56193001         0.8091624784         0.1715782414        0.05910663011      0.0001028896542      5.726563103e-07      1.676421566e-08      2.963389743e-40      1.752880736e-80          1.374403985          1.222455463            1.2497745         0.4669999301         0.8289116046        0.03542969499         0.6618763158       0.009413311366         0.2627602483     -3.092836273e-09         0.1654904777     -1.137554819e-10 
                   1                    1          15.08362272       -0.03599268282      -0.007632041014      -0.002629145872     -4.576676239e-06      -2.54725565e-08     -7.456958438e-10     -1.318157353e-41     -7.797059557e-82        -0.0603026266       -0.06091201195        -0.0556360091       -0.02139758228       -0.04072433229      -0.001964261783       -0.03339374215     -0.0007979918041      -0.002835007887     -6.941978398e-07        0.01983148799     -5.727180356e-11 
                   0                   71           2.82039212        -0.2704827583       -0.03679080844      -0.003045674908     -2.261719791e-08     -2.435048075e-12     -5.213665714e-15     -2.416999473e-69     -9.17426199e-138         -0.144964862        -0.1184701057         -0.140391026       -0.02996336276        -0.1106178233     -7.141573355e-05       -0.09230491681     -1.718956368e-06        -0.0459620029      -3.94634379e-18       -0.03963714598      -9.27820689e-33 
                   1                    4          -3.62897178         0.4877415956        0.06634214961       0.005492040783      4.078392379e-08      4.390942481e-12      9.401418601e-15      4.358396769e-69     1.654326956e-137          0.260745667         0.2206902189          0.252257575        0.05765700497         0.1970315964      0.0001306223282         0.1631532507      2.891009004e-06         0.0724786077      1.389156542e-18        0.04830061451     -8.647910725e-34 
                   1                    1          14.97675424      -0.006393074023     -0.0008695798699     -7.198693648e-05     -5.345753695e-10     -5.755428809e-14     -1.232291147e-16      -5.71276951e-71    -2.168409417e-139      -0.002411884108      -0.004534448312      -0.002260450772      -0.001816208928      -0.001067703859     -6.516634991e-07     -0.0001272595595     -3.285276348e-08       0.003539751187     -2.777287508e-19       0.006237539795     -7.099646324e-34 
                   0                   50          -5.69960828         0.1443506975        0.01567508696      0.0005007636708      1.007865508e-10      8.885310006e-16      3.708468132e-19      2.748539359e-87     7.966538294e-173        0.03669018633        0.03025294118        0.03579694023       0.006855328821        0.02921505347      2.706407244e-06        0.02484283562      2.435491004e-08        0.01478964655      1.763403698e-20        0.01170254421      1.469496137e-35 
                   1                    4          -1.15217178        0.06086807461       0.006609683079      0.0002111560319       4.24984666e-11      3.746651189e-16      1.563742461e-19      1.158971184e-87     3.359234529e-173        0.01550053722          0.012751909        0.01512842199       0.002891557432         0.0123556399        9.7306075e-07        0.01049199203      7.791373413e-09       0.006061468068      8.325441815e-21       0.004574432994      1.097714889e-35 
                   1                    1          14.97675424      -0.001606920262     -0.0001744959691     -5.574529969e-06     -1.121961677e-12     -9.891178174e-18     -4.128288042e-21     -3.059689813e-89    -8.868396223e-175     -0.0003641579127     -0.0003349917655     -0.0003526775503     -9.824065342e-05     -0.0002663939062     -2.718963547e-08     -0.0002056123718     -1.098877219e-10     -7.127701917e-06     -2.474008456e-22      0.0001001271021     -4.381459589e-37 
                   0                   42          -4.16756329         0.7091767466         0.1220831632        0.02302895094      3.894688774e-06      3.958702083e-09       3.74652031e-11      1.123147344e-52     4.151769392e-105         0.7238221154         0.6260737947         0.6779271647         0.2159410279         0.4516168295       0.005884681469         0.3509890807       0.002849500083         0.1669156779      5.513751859e-05         0.1275380374      3.891618265e-07 
                   1                    1          -1.18665148         0.4123213341        0.07098017947        0.01338922606       2.26440486e-06      2.301622737e-09      2.178258467e-11      6.530073264e-53     2.413873696e-105         0.4209290571         0.3629979712         0.3950854024         0.1199081431         0.2738291324       0.003921919952         0.2167675461       0.001606842952         0.1198107473      4.943937898e-06         0.1053800913     -1.106811037e-07 
                   1                    1          14.91227686                   -0                   -0                   -0                   -0                   -0                   -0                   -0                   -0       0.007569466279       -0.01414645634       0.007920057567      -0.008953527604        0.01110511342      1.666796394e-05        0.01416934823      -3.01408884e-06        0.03451747097     -2.329963274e-06        0.05826123026     -2.895474341e-08 
                   0                   43          -3.63802088         0.5031495788        0.07702578848       0.009833349272       3.74843642e-07      1.298397224e-10      6.019474507e-13      1.242960472e-60     9.309288935e-121         0.3771871115         0.3281124101         0.3580388142         0.1062074394         0.2446775698      0.0003330847102         0.1900692758      1.116559514e-05         0.0866758107      8.113004266e-16         0.0467068865     -9.240357898e-27 
                   1                    2          -2.43838994          0.502890707        0.07698615852       0.009828289989       3.74650784e-07      1.297729196e-10      6.016377472e-13      1.242320966e-60     9.304499282e-121          0.377523191         0.3287127733         0.3587058241         0.1052118842         0.2485816724      0.0002989017375         0.1961734911      9.479342567e-06        0.08168685533      8.210869033e-15         0.0324175129      2.854898985e-26 
                   1                    1          14.99109357       -0.01063049005      -0.001627392555     -0.0002077579433     -7.919656056e-09     -2.743239657e-12     -1.271788084e-14     -2.626113485e-62     -1.96685653e-122       -0.00582089763       -0.00582156209      -0.005359149949      -0.002832394238      -0.002371565489     -7.263306784e-06     -0.0004665743642     -1.590407913e-07       0.005021385118     -4.904704174e-16       0.005161119724     -2.221607319e-27 
                   0                   44          -2.21960018         0.5387908009         0.2130615042         0.2380428346        0.04393103086       0.007588214372       0.002182821118      2.468159248e-15      8.165235338e-31          2.857322561          2.831035094           2.13585228          1.803034499         0.6866312405          0.495874511         0.3238095827         0.3476245201       -0.05992102844        0.09898196937        -0.1503245031        0.06229938499 
                   1                    3          -0.08513001         0.3204911477         0.1267362507         0.1415959982        0.02613167575        0.00451372876       0.001298416462      1.468145315e-15      4.856960514e-31          1.695459393           1.61515395          1.275044894          0.980259446         0.6330596899         0.2172281858         0.5229616677        0.08224095031         0.2337369414        0.06883174436         0.2927378056         0.0617613318 
                   1                    1          15.08362272       -0.03992997064       -0.01579006099       -0.01764143594      -0.003255743732     -0.0005623651641     -0.0001617696201     -1.829161266e-16     -6.051283854e-32        -0.1878027918        -0.1473768722         -0.145554406       -0.06885268994        -0.1314630568       -0.05873060381        -0.1346231554       -0.06279649551        -0.1534187522       -0.09462899802        -0.1834456871        -0.1406953925 
                   0                   45          -1.43960808         0.3644512449         0.1328745622         0.1334578733        0.01606342096       0.002022718145      0.0004714619932      7.984064304e-18      1.385917169e-35          1.679669784          1.563831915          1.301304892          0.960998279         0.5596077418         0.2832686316         0.3152452111         0.2434588612       -0.01266277083         0.2693132773        0.05433248431         0.3038267172 
                   1                    4          -1.15217178         0.5809925162         0.2118229182         0.2127528077        0.02560761554       0.003224530362      0.0007515844536      1.272785229e-17      2.209369606e-35          2.710652681          2.686257199          2.084169877          1.601467983         0.7691528874         0.4319432002         0.4201511015         0.3249890256        0.08873772589        0.07611532025        0.01474896609       -0.02946367711 
                   1                    1          14.97675424       -0.01533823195      -0.005592135801      -0.005616684931     -0.0006760423513     -8.512776539e-05     -1.984186776e-05      -3.36015947e-19     -5.832746984e-37      -0.008455871687        -0.1184168432       0.007668031024       -0.04929207634        0.01543027022       -0.02522629024        0.01944631885       -0.03937608112        0.02886520648        -0.1120334375        0.04179624645        -0.1498451344 
                   0                   34           0.09243691                   -0                   -0                   -0                   -0                   -0                   -0                   -0                   -0        0.03324040428        -0.1325627261        0.06166056158        -0.1925562548         0.3058277489        -0.0833835494         0.4902023597        -0.1761299384         0.8782406397        -0.1768719054         0.7538515783       -0.04512559493 
                   1                    1          -1.18665148         0.5572350607         0.2433932895         0.3048959963        0.08916197783        0.02165100651       0.007813167168      8.180428237e-13      7.761829956e-26          3.297168917          3.366443065          2.454313548          2.173364874           0.94859206         0.6848991108         0.6293741206         0.4903217748         0.1343343816         0.2047941485        0.05369348119         0.1590921939 
                   1                    1          14.91227686                   -0                   -0                   -0                   -0                   -0                   -0                   -0                   -0        0.09867483379        0.05334777621         0.1133079052       -0.02995727727         0.1408127667       -0.02200044204         0.1619049122       -0.03072267316          0.154811204       -0.02737971903         0.1191505675      -0.006765529684 
                   0                   35           0.62197932        -0.1239987191        -0.0320236565       -0.01761292028     -0.0001927181856      -4.13722822e-06     -2.971715973e-07     -3.136636829e-31     -9.632551366e-62        -0.3106662826        -0.2586540206        -0.2665388696         -0.132221667        -0.1099697752       -0.02240595739       -0.05416442227       -0.02457627521       -0.04896956239      -0.006222965354        -0.2672759493      -0.002092421839 
                   1                    2          -2.43838994         0.8730820883         0.2254804009         0.1240135812        0.00135693979      2.913046102e-05      2.092402249e-06      2.208523969e-30      6.782334626e-61          2.230936013          2.021154058          1.938555416         0.9035207274          1.160914498         0.1283502787         0.9159186999        0.06797088974         0.4669657386       0.009413810638         0.2564011566       0.005814589968 
                   1                    1          14.99109357       -0.01845587983      -0.004766377913      -0.002621494339     -2.868403561e-05     -6.157820613e-07       -4.4230806e-08     -4.668547611e-32     -1.433701991e-62       -0.02778413101       -0.02129239982       -0.02197533792       -0.01231317244      -0.008862162797      -0.004268321137      -0.005118266104      -0.003924455858       -0.01322025219     -0.0009262815841       -0.04313644363     -0.0003114345562 
                   0                   36           2.04040002        -0.4307248631        -0.1959813131        -0.2561097997       -0.08881113264        -0.0244656607      -0.009602405509     -5.380323684e-12     -4.153027895e-24         -2.831438692         -2.727488227         -2.055154515         -1.747775236        -0.8814236386        -0.4893125551        -0.6643283143        -0.2316219448        -0.2947130051       -0.02717501294        -0.3313104283        0.01756201875 
                   1                    3          -0.08513001         0.3040954182         0.1383644745         0.1808156977         0.0627014153        0.01727296462       0.006779379992        3.7985543e-12       2.93207303e-24           1.98205134          2.069362484          1.421201361          1.437767835         0.2134858457         0.3863912711       -0.09977614295         0.3308571366        -0.3229867352         0.1207980397        -0.4365314673        0.09518514726 
                   1                    1          15.08362272        -0.0378872278       -0.01723882062       -0.02252781568      -0.007811965135      -0.002152037506     -0.0008446424995      -4.73261626e-13     -3.653067826e-25        -0.2306837217        -0.1669558228        -0.1694214023       -0.07215216381        -0.1634828591       -0.07980810867        -0.1708256032       -0.07982369552        -0.2810924995        -0.0817767014         -0.425861655       -0.07905242183 
                   0                   37           2.82039212        -0.6462082692         -0.173448813        -0.1033907701      -0.001555517472     -4.221744713e-05     -3.544255764e-06     -8.409542581e-29     -1.262131687e-57         -1.786509582         -1.659856662         -1.543215671        -0.7671881051         -0.909706598       -0.09933361737        -0.7018808304       -0.03574262742        -0.1503519666      -0.002506069104          0.125403798     -0.0005976222063 
                   1                    4          -1.15217178         0.5785459996         0.1552875778        0.09256507426       0.001392644529      3.779700186e-05        3.1731488e-06      7.529007985e-29      1.129978172e-57          1.591750756          1.422797941          1.369688372          0.686320608         0.6990070714        0.08495720969         0.4792639521         0.0437035525         0.3684611268       0.003988272573         0.5198500753       0.001462756003 
                   1                    1          14.97675424       -0.01527364378      -0.004099599944      -0.002443722663     -3.676588631e-05     -9.978427692e-07     -8.377128954e-08     -1.987661933e-30     -2.983148115e-59       -0.01705789322       -0.04728341733       -0.01008165532       -0.03944711687         0.0183837906      -0.003687707588        0.04095278514      -0.002252132313          0.133657834     -0.0003649891529         0.2014628503     -0.0002302742748 
                   0                   38           4.35243711        -0.7091767466        -0.1220831632       -0.02302895094     -3.894688774e-06     -3.958702083e-09      -3.74652031e-11     -1.123147344e-52    -4.151769392e-105        -0.7281256305        -0.6269359187         -0.683892166        -0.2104602082        -0.4614208127      -0.004403524887        -0.3592429357       -0.00154772078        -0.2070695347      -9.63045379e-05        -0.1788699866     -3.291227681e-06 
                   1                    1          -1.18665148         0.4123213341        0.07098017947        0.01338922606       2.26440486e-06      2.301622737e-09      2.178258467e-11      6.530073264e-53     2.413873696e-105         0.4218372494         0.3784904129         0.3951081237         0.1356590672         0.2571496521       0.001912079856         0.1938898915      0.0007279114974         0.0477502466       7.13079796e-05       -0.01202630248       3.69575875e-06 
                   1                    1          14.91227686                   -0                   -0                   -0                   -0                   -0                   -0                   -0                   -0       0.007642975449      -0.001967534562       0.008072730118      -0.005726669461         0.0115147682     -7.170407562e-06        0.01455832064      5.380054451e-06         0.0345698374     -1.153285288e-06        0.05353496335     -1.342019406e-07 
                   0                   39           4.88197952        -0.2386855671       -0.02791355232      -0.001245457015     -9.049567868e-10     -1.918344769e-14     -1.413348127e-17     -5.361490335e-81     -1.00083455e-160       -0.07787012471       -0.06374474932       -0.07561969627       -0.01530784262       -0.05983144136     -8.071548586e-06       -0.05028826074     -2.847853424e-08       -0.03235741935      -1.20863773e-22       -0.02822790981     -4.391529492e-40 
                   1                    2          -2.43838994         0.1858107108        0.02172999843       0.000969556962      7.044860979e-10      1.493383155e-14       1.10025597e-17      4.173785379e-81     7.791245255e-161         0.0604786288        0.04970103124        0.05870227364        0.01200376782        0.04631384671      5.980726719e-06        0.03887959248      1.191767291e-08        0.02535597219      5.763032071e-23        0.02250404261      3.415522787e-40 
                   1                    1          14.99109357      -0.003927809534     -0.0004593453984     -2.049523982e-05     -1.489196828e-11     -3.156828025e-16     -2.325805583e-19     -8.822868138e-83     -1.64697327e-162      -0.001103028542      -0.001362852998      -0.001057696184     -0.0004711229687     -0.0007184403702      -1.53692114e-07     -0.0004804198991     -6.321350213e-10      0.0003477429198     -1.089360559e-24        0.00105955476     -7.218872949e-42 
                   0                   40           6.30040022        -0.1008688455       -0.01067488401     -0.0003019764461     -3.748096587e-11     -2.375852892e-16     -8.024051415e-20     -1.197225925e-89    -3.022956092e-177       -0.02258382447       -0.01886891204       -0.02201792852      -0.004494810809        -0.0178399412     -1.989440972e-06        -0.0149809572     -1.251926081e-08       -0.00696749752     -2.016150565e-24      -0.004150094676     -4.850081914e-44 
                   1                    3          -0.08513001        0.02234593708        0.00236485592      6.689822444e-05      8.303329944e-12       5.26333567e-17      1.777604841e-20      2.652269396e-90      6.69689301e-178       0.005004947319        0.00420104894       0.004879748214      0.0009913436629       0.003953571924      4.124990746e-07       0.003323658754      2.395602043e-09       0.001689151114     -1.561985046e-25       0.001110988594     -2.218119935e-44 
                   1                    1          15.08362272      -0.002784078805     -0.0002946372408     -8.334845306e-06     -1.034511322e-12     -6.557586388e-18     -2.214716682e-21     -3.304460665e-91    -8.343654519e-179     -0.0006215289039     -0.0005070638854     -0.0006061193914     -0.0001184649311      -0.000493285427     -5.476646983e-08     -0.0004174227956     -3.504116922e-10     -0.0002146007766     -8.629652479e-26     -0.0001454523416     -2.935707941e-45 
                   0                   16          -5.69960828         0.4693540511        0.06032901114       0.003998022832      1.287361352e-08      7.685010637e-13      1.115668196e-15      2.427985566e-73     6.553070314e-146         0.2108363523         0.1713716478          0.204635308        0.04223010202         0.1628441862      0.0001077068895          0.136706694      1.032292133e-05        0.07148432037      4.659585728e-12        0.05716708554      6.225273141e-20 
                   1                    4           1.32462822      -0.002794036708     -0.0003591350097     -2.379999177e-05     -7.663585441e-11     -4.574841055e-15     -6.641506314e-18     -1.445365345e-75    -3.901003723e-148      -0.001233622605      0.0006726411841      -0.001194940411     -0.0004459398553     -0.0007380913345      6.945008431e-07     -0.0001722508287      8.058594239e-08       0.001508929407      -1.37107015e-13       0.001068114846     -3.738782889e-21 
                   1                    1          14.97675424      -0.005224876277     -0.0006715860199     -4.450621998e-05     -1.433098057e-10     -8.554998017e-15     -1.241968249e-17     -2.702847489e-75    -7.294915542e-148      -0.001677120991       0.001990146402      -0.001582293372     -0.0005047820379     -0.0009118051479     -6.442363574e-07     -0.0004854500171     -2.052740181e-08      0.0003507863632     -4.448977572e-14       0.000801594473     -1.248985658e-21 
                   0                    8          -4.16756329         0.9092325462         0.1968793749        0.07160755061      0.0001541166679      1.002058221e-06      3.252824998e-08      4.514180833e-39      3.503902196e-78          1.598309839          1.398986134          1.438694877         0.5590082895         0.9249527982         0.0395386151          0.743157551       0.008743561661         0.3687143196      0.0001916594911         0.2945195732      5.646695651e-06 
                   1                    1           1.29014852                   -0                   -0                   -0                   -0                   -0                   -0                   -0                   -0       0.000265616749       -0.04152134223      0.0004165528583       -0.01620470994        0.00610432108     -1.782974949e-05        0.01721054234     -4.990963542e-06        0.05961667435     -1.747558519e-05         0.0649441596     -2.046587338e-06 
                   1                    1          14.91227686                   -0                   -0                   -0                   -0                   -0                   -0                   -0                   -0        0.02015545948       -0.05857606387        0.02139746364       -0.02554080603        0.03232530648     -0.0002567736007        0.04137381191     -0.0001019593454        0.07161393818       -3.0022237e-06         0.1101848074     -3.344826581e-07 
                   0                    9          -3.63802088         0.8524554744         0.2070734912        0.09949498756      0.0006387104279      9.262727518e-06      5.125533595e-07      2.967990333e-33      1.364735636e-66          1.909774114          1.735954617          1.673850962         0.7825749134          0.956641746        0.08130662555          0.715328753        0.03460900142         0.2824720192       0.007282031774         0.1801035417       0.004335810803 