ITEM: TIMESTEP
0
ITEM: NUMBER OF ENTRIES
576
ITEM: BOX BOUNDS pp pp pp
0 4.26
0 2.4768
0 30
ITEM: ENTRIES c_2[1] c_2[2] c_2[3] c_2[4] c_2[5] c_2[6] c_2[7] c_2[8] c_2[9] c_2[10] c_2[11] c_2[12] c_2[13] c_2[14] c_2[15] c_2[16] c_2[17] 
                   0                   79          -1.39364233         0.2151816921        0.03514748824       0.005593254285      2.166337877e-12      1.289785137e-56     2.015189258e-112         0.1924284148         0.1570934652         0.1729486253        0.02145537602        0.09971252807      7.494998514e-06      -0.006559367274      7.374236562e-23 
                   1                    4          -3.65534715         0.7466450567         0.1219559996        0.01940767183      7.516835896e-12       4.47534215e-56     6.992375064e-112          0.668734335         0.5402607842         0.5992164723        0.07653361265         0.3342517232      3.765239677e-05         0.0627655599      2.003378104e-23 
                   1                    1          15.00728138      -0.006453293579      -0.001054072296     -0.0001677415565     -6.496841891e-14     -3.868062408e-58     -6.04354756e-114      -0.002854612014      -0.002702407863      -0.002175755076     -0.0007497676481      -0.000399704319     -2.275351152e-07       0.001245437725     -3.492119533e-24 
                   0                   68           0.01389702                   -0                   -0                   -0                   -0                   -0                   -0      -0.001403470288      -0.006691953754       6.86647677e-05      -0.001538955036       0.007151861496      0.0001204645421        0.03874751232     -1.082216806e-06 
                   1                    1          -3.72501726         0.8137120297         0.1388539779        0.02547174737      3.272168883e-11      3.518983774e-53     3.615938187e-106          0.813428173         0.5579108964         0.7248111894        0.09818426405         0.4135601466       0.001779218894          0.182431288      2.631919234e-06 
                   1                    1          14.96506931                   -0                   -0                   -0                   -0                   -0                   -0       0.005397792252       0.002906970276       0.005738247746     -0.0003722654546       0.007024791308      1.062154414e-05        0.00600388794     -1.364791951e-07 
                   0                   69            0.7655375        -0.0268085753      -0.003005552327     -0.0001111753304      -2.75180299e-19      -2.29624322e-85    -2.208088545e-168      -0.007570816587      -0.005609982065      -0.007168917092     -0.0004398292673       -0.00504061739      2.242135094e-11      -0.003163334816      4.985484606e-55 
                   1                    2          -4.91842246         0.2192437158        0.02457976423      0.0009092050688      2.250457199e-18      1.877895003e-84     1.805801062e-167        0.06195896235        0.04566694265        0.05873228445       0.003529424288        0.04123947385      8.717522006e-09        0.02053588236      2.661516684e-55 
                   1                    1          15.05985927      -0.003380850085     -0.0003790325194     -1.402040657e-05     -3.470319951e-20     -2.895810015e-86    -2.784637475e-169     -0.0009241148744     -0.0006821266732     -0.0008751998493     -5.351802067e-05     -0.0006168575612     -1.928025705e-10     -0.0004015701029     -2.518520349e-56 
                   0                   71           2.86635787        -0.2734392729       -0.03680785973      -0.002927143306     -3.607905599e-15       -4.1499429e-70    -2.770825704e-139        -0.1405496633        -0.1079527076        -0.1314917366      -0.009933119468       -0.08689230865     -1.333808948e-06       -0.03178758922      1.288465748e-34 
                   1                    4          -3.65534715         0.4681775871        0.06302172607       0.005011799788        6.1773882e-15      7.105454286e-70     4.744155726e-139         0.2408021247         0.1770518223         0.2254188238        0.01687010385         0.1498684219      2.332434531e-06        0.06096597938      2.910236712e-33 
                   1                    1          15.00728138      -0.004046484189     -0.0005447001845     -4.331725644e-05     -5.339150008e-17     -6.141282542e-72    -4.100399435e-141      -0.001297535686       -0.01115350692      -0.001082169858     -0.0002351285448      0.0003833423262     -1.033456706e-08       0.007205100678     -2.232481398e-34 
                   0                   50          -5.65364253         0.2255707655        0.02560197928       0.001000897132      3.888952237e-18      1.954806282e-83     1.726178752e-165        0.06652044397        0.04909966141        0.06301572908       0.003834034495        0.04415535472      9.293997404e-09        0.02219017574     -6.376374111e-56 
                   1                    4          -1.17854715        0.09580491274        0.01087372907      0.0004251032359      1.651724366e-18      8.302496327e-84     7.331464442e-166        0.02824527017        0.02075799621        0.02676824211       0.001615498887        0.01874742669      5.527272386e-09       0.008515499066      1.016146367e-54 
                   1                    1          15.00728138      -0.001680060432     -0.0001906846052     -7.454723414e-06     -2.896507781e-20     -1.455947839e-85    -1.285665105e-167     -0.0003933157592     -0.0004675538301     -0.0003594034883     -3.707326564e-05     -0.0001558776143     -7.885146944e-11      0.0005208485545      4.749149925e-58 
                   0                   42          -4.24610318         0.7091767466         0.1220831632        0.02302895094       3.74652031e-11      1.123147344e-52     4.151769392e-105         0.7272402729         0.5739178881         0.6469139639        0.08898986787         0.3656069908       0.001727779268         0.1359320702      4.850591967e-06 
                   1                    1          -1.24821726         0.4123213341        0.07098017947        0.01338922606      2.178258467e-11      6.530073264e-53     2.413873696e-105         0.4211618356         0.3240344421         0.3763102143        0.04980184008         0.2213033624       0.001149673632         0.1297382321      5.646481119e-07 
                   1                    1          14.96506931                   -0                   -0                   -0                   -0                   -0                   -0       0.005867757895       -0.03214985808       0.006389105915     -0.0005667783335        0.01111382292      1.048196184e-05        0.04725610174     -2.526053552e-07 
                   0                   43           -3.4944627         0.5378404409        0.08798974761        0.01407612364      5.698084824e-12       4.10733483e-56     8.147814894e-112         0.4844463905         0.3900959361         0.4338900131        0.05565119041         0.2410147913      2.618488007e-05        0.06147978896      -8.04341342e-24 
                   1                    2          -2.44162246         0.5626517634        0.09204883621        0.01472547467      5.960945348e-12      4.296811859e-56      8.52368485e-112          0.506876471         0.4106964395         0.4548328578        0.05730125084         0.2578753322       2.22164521e-05        0.02546368057       3.05462761e-23 
                   1                    1          15.05985927       -0.01453154122      -0.002377334516     -0.0003803131102     -1.539526376e-13     -1.109732568e-57    -2.201402107e-113       -0.01170477066       -0.00987409255       -0.01036993602        -0.0014702839      -0.004795080856     -6.244142275e-07      0.0008987009431      -1.65302265e-24 
                   0                   44          -2.06536865         0.4471979197        0.09786861477        0.03657536026      2.103108782e-08      8.188613428e-39      2.306294146e-77         0.7997347469         0.8142561082         0.6679137523         0.1510734065         0.3000015047         0.0172249872         0.0908238948        0.01267523247 
                   1                    3          -2.45309465         0.7918365092         0.1732922692        0.06476261252       3.72389549e-08      1.449926931e-38       4.08366816e-77          1.416658402          1.082928374          1.185008545         0.2664139388         0.5353993513         0.0306274792         0.2360086185        0.02533499116 
                   1                    1          15.07350799       -0.02332244158      -0.005104082442      -0.001907492556     -1.096821553e-09     -4.270557841e-40     -1.202787583e-78       -0.03604034364        0.09371606553       -0.03268217167      -0.006590350947       -0.02086254494      -0.001336578495        -0.0371858443      -0.008816165274 
                   0                   45          -1.39364233         0.3317304526         0.1259529442         0.1336196811      0.0007703059018      1.127509207e-16        2.8983421e-33          1.596991361           1.31447038          1.049810153         0.6708251292         0.2501701582         0.2058028459        0.07198153925         0.1183344033 
                   1                    4          -1.17854715         0.5673150722         0.2154007963         0.2285122106       0.001317353125      1.928231075e-16       4.95665425e-33          2.736037157          2.773907145          1.809342724          1.138383704         0.4670945987         0.3492349278        0.02408947944         0.2069481166 
                   1                    1          15.00728138         -0.009948588      -0.003777325656      -0.004007250904     -2.310145478e-05       -3.3813973e-18      -8.69212073e-35        0.08488240659        -0.2023074867         0.0127716272       -0.02215593292        0.02066853064       -0.03318514514        0.04195257583        -0.2548686961 
                   0                   34           0.01389702                   -0                   -0                   -0                   -0                   -0                   -0       0.009149636143        -0.1016994925     -0.0001543577416      -0.006934005249         0.3063907472        -0.1361171033         0.4973795842      -0.002794639751 
                   1                    1          -1.24821726         0.5572350607         0.2433932895         0.3048959963       0.007813167168      8.180428237e-13      7.761829956e-26          3.232847439          3.267785108          1.986166873          1.603159999         0.5154984456          0.414676176        0.02763504902          0.150096263 
                   1                    1          14.96506931                   -0                   -0                   -0                   -0                   -0                   -0        0.07817305156        0.03440972107        0.09091460536       -0.01808104659         0.1263840766       -0.02257395843        0.07207420585       -0.00047251519 
                   0                   35            0.7655375        -0.1764147051       -0.04588215145       -0.02561502272     -4.929333095e-07      -9.26800675e-31     -5.855454834e-61        -0.4503376033        -0.3713551513        -0.3498485108        -0.1149083883        -0.1085329365       -0.01838659388        -0.3403357125      -0.002018358121 
                   1                    2          -2.44162246         0.8614200341         0.2240391721         0.1250762726      2.406957108e-06      4.525499554e-30      2.859175544e-60          2.201891671          1.915228559          1.722278907         0.5475624004         0.8322257306        0.04621746556        0.07888075705       0.003771173887 
                   1                    1          15.05985927       -0.02224779437      -0.005786233467      -0.003230330249     -6.216419942e-08     -1.168795471e-31     -7.384359202e-62       -0.04790919221       -0.03716476987       -0.03752482594       -0.01214749498       -0.01927701263      -0.002735705411       -0.04789591049     -0.0002545374116 
                   0                   36           2.19463155        -0.4629811911       -0.09953731234       -0.03554319518     -1.376363492e-08     -9.499684583e-40     -3.081169675e-79        -0.8002322807        -0.6861162184        -0.6702971863        -0.1462718384        -0.3667408717      -0.004052337625       -0.09445052871      2.223356172e-12 
                   1                    3          -2.45309465         0.7816391036         0.1680462556          0.060006652      2.323678687e-08      1.603807041e-39      5.201858626e-79          1.351591346          1.072416878          1.134059373         0.2450595393         0.6382397786       0.007962314481         0.2797182157      2.010402469e-12 
                   1                    1          15.07350799        -0.0230220912      -0.004949568419      -0.001767412363     -6.844071952e-10     -4.723790275e-41     -1.532135011e-80       -0.03633131053       -0.09046393418       -0.03048502451      -0.006619045422        -0.0102777573     -0.0004560132147        0.08552239406     -1.749891856e-13 
                   0                   37           2.86635787        -0.6706585359        -0.1753851467       -0.09905341859     -2.110606811e-06     -6.206566768e-30     -6.856994226e-60         -1.729519835         -1.508877677          -1.35173722        -0.4325089708        -0.6997117711       -0.03938088219         0.0408705368      -0.004240113166 
                   1                    4          -1.17854715         0.5659542033         0.1480037242        0.08358903316      1.781095345e-06      5.237587181e-30      5.786468816e-60          1.458573336          1.249157185          1.139611622         0.3666790622         0.5176343574        0.05030161356         0.3230838109       0.005986344128 
                   1                    1          15.00728138      -0.009924723442      -0.002595432674      -0.001465839519      -3.12337617e-08     -9.184772189e-32     -1.014730562e-61      -0.005591955738       -0.02250366016       0.001926536982      -0.008753699555        0.03888618818        -0.0016554362        0.08327537302     -0.0007539458084 
                   0                   38           4.27389722        -0.7091767466        -0.1220831632       -0.02302895094      -3.74652031e-11     -1.123147344e-52    -4.151769392e-105        -0.7243928578        -0.5700879145        -0.6468142822       -0.08621570132        -0.3822824469      -0.002599559697        -0.1786726581     -9.784638232e-06 
                   1                    1          -1.24821726         0.4123213341        0.07098017947        0.01338922606      2.178258467e-11      6.530073264e-53     2.413873696e-105         0.4229546994         0.3255657617         0.3761161929        0.05192723047         0.2100219452       0.001384190615        0.06789780291      1.496177851e-05 
                   1                    1          14.96506931                   -0                   -0                   -0                   -0                   -0                   -0       0.005943861005       -0.02631578146        0.00660376477     -0.0007200320481        0.01168292609      4.354939702e-06        0.04278759981     -5.228214165e-07 
                   0                   39            5.0255377        -0.1677136457       -0.01867999509     -0.0006707486057     -1.302215733e-18      -4.15728845e-85    -1.223003408e-168       -0.04650981051       -0.03395370302       -0.04420017336      -0.002526111317       -0.03160884065     -5.993456385e-09       -0.01566883504     -1.370964885e-55 
                   1                    2          -2.44162246         0.1228227508        0.01368003404      0.0004912133925      9.536595417e-19      3.044532252e-85     8.956494994e-169        0.03406532518        0.02496622148        0.03236394641       0.001861057596        0.02312937527      3.423050138e-09        0.01220026025      -8.51045988e-56 
                   1                    1          15.05985927      -0.003172128805     -0.0003533126375     -1.268651078e-05     -2.463005333e-20     -7.863077803e-87    -2.313183476e-170     -0.0008481836921     -0.0006327149082     -0.0008010580452     -5.152328561e-05     -0.0005341869175     -1.412444552e-10      -0.000179261299     -6.820892993e-57 
                   0                   15          -6.32536885        0.03430546854       0.003515370593      8.502118306e-05      5.635244392e-21      4.800886281e-93     2.778982191e-183       0.006878365291       0.005152064495       0.006572609881      0.0003340070668       0.004743228226      4.474147525e-10       0.001536961141      3.736931922e-46 
                   1                    3           0.02370535       0.006520294975       0.000668151586      1.615961584e-05      1.071067012e-21      9.124841031e-94     5.281893641e-184       0.001306979007      0.0009805920375       0.001248921918      6.342196351e-05      0.0009002798573      7.996563025e-11      0.0002878205511      5.620527736e-47 
                   1                    1          15.07350799     -0.0005868250049     -6.013348464e-05     -1.454361602e-06     -9.639577766e-23     -8.212335336e-95    -4.753691779e-185     -0.0001170452116     -8.782301145e-05     -0.0001117903873     -5.740476348e-06     -8.040337522e-05     -7.624886899e-12     -2.578512062e-05     -6.392350236e-48 
                   0                   16          -5.65364253         0.5359583143        0.07185224205       0.005624352764      6.091757501e-15       4.05119606e-70     1.366213885e-139         0.2720963074         0.2002695006         0.2548019993        0.01896212869         0.1690706655      2.420353781e-06        0.06965710676      3.271919368e-33 
                   1                    4           1.29825285      -0.006588445371     -0.0008832675209     -6.913922211e-05     -7.488494988e-17     -4.980067146e-72     -1.67946374e-141      -0.003328432089       0.002682017975      -0.003104977202     -0.0002442872546      -0.001744521822     -8.217771532e-08       0.001501985354      4.065413053e-33 
                   1                    1          15.00728138      -0.003991839789     -0.0005351584836     -4.189041302e-05     -4.537166292e-17     -3.017347654e-72    -1.017561777e-141      -0.001206507854       0.002118949951       -0.00100611816     -0.0002194537478      3.148355558e-05      -1.83636922e-08       0.001135623775     -2.436939137e-35 
                   0                    8          -4.24610318         0.9092325462         0.1968793749        0.07160755061      3.252824998e-08      4.514180833e-39      3.503902196e-78          1.601212935          1.303518313          1.342122409         0.2918646289         0.7453999204       0.009159969789         0.2840250097      2.170169589e-13 
                   1                    1           1.22858274                   -0                   -0                   -0                   -0                   -0                   -0     -0.0001379314485       -0.07646720969      0.0003953249033     -0.0005239688191       0.008530089901      0.0003725090868         0.1057144468      8.291972647e-13 
                   1                    1          14.96506931                   -0                   -0                   -0                   -0                   -0                   -0        0.01569194209       -0.03833584251        0.01737813021      -0.001868358187        0.03101443682     -0.0002741187638        0.07556349344     -9.053345033e-14 
                   0                    9           -3.4944627         0.8272366054         0.2183836079         0.1257973081      3.189576729e-06       2.01271001e-29      5.772989212e-59          2.179436192          1.884711848           1.70014704         0.5476064209         0.7891038505        0.05290461553         0.2663112975       0.003886588267 
                   1                    2           0.03517754          0.281393171        0.07428546501        0.04279126818      1.084967836e-06      6.846443307e-30      1.963742574e-59          0.742995584         0.6694008636         0.5823564299         0.1831620325          0.331134788       0.006979911252        -0.2960894272      0.0001795060598 
                   1                    1          15.05985927       -0.02235053729      -0.005900356608      -0.003398831009     -8.617698148e-08     -5.438002845e-31     -1.559764278e-60       -0.04936605518       -0.04698418113       -0.03823216347       -0.01305619525       -0.01354695772      -0.003004445137        0.02567442053      -0.000463535422 
                   0                   10          -2.06536865         0.4612072318         0.2083557419         0.2703240527         0.0094982278      3.997486417e-12      2.157881289e-24          2.877018382          2.909574497          1.689334743           1.43653279         0.2592132488         0.4518937413         -0.263067689         0.1092271823 
                   1                    3           0.02370535         0.2672569329         0.1207364341         0.1566453695        0.00550396233      2.316433667e-12      1.250432984e-24          1.688324814          1.562972606         0.9939845099         0.8147453817         0.5335305603        0.08793483672         0.4922295568        0.05356200356 
                   1                    1          15.07350799       -0.02405306073        -0.0108662505       -0.01409804619     -0.0004953553073     -2.084784819e-13     -1.125386726e-25       -0.08707495389       -0.03943088568       -0.08735524385       -0.05676196103        -0.1001242414       -0.07207954651        -0.1484559436        -0.1376520119 
                   0                   11          -1.39364233          0.214261063         0.1734936839         0.3295666808         0.3634100674      0.0006106961406      5.858424678e-08          2.689769384          3.034280158         0.8512018407          2.243800682       -0.03593081452         0.6882368311       -0.07212429129         0.1889858785 
                   1                    4           1.29825285       -0.01060545258      -0.008587556747        -0.0163128277        -0.0179880011     -3.022811923e-05     -2.899791695e-09       -0.01355983462        0.00980448924       -0.04561183956        -0.1079219513        0.05354885056        0.09216721518       -0.04835882118        -0.4541954845 
                   1                    1          15.00728138      -0.006425683934      -0.005203071253      -0.009883696536       -0.01089865886     -1.831476202e-05       -1.7569401e-09         0.1202328038         0.1035462059        0.08393081796       -0.09365933774        0.03547830353        -0.1804598818        -0.2216666752        -0.2950861303 
                   0                    1            0.7655375        -0.1146676603       -0.09259644393        -0.1757132131         -0.191945681     -0.0003094583681     -2.818754009e-08         -1.400997389         -1.542287654        -0.4599016241         -1.196080122         0.1060966221        -0.2400335123        0.05496323289        -0.3377197884 
                   1                    2           0.03517754         0.1820617512          0.147018529         0.2789858554         0.3047586978      0.0004913375948      4.475431781e-08          2.313576969          2.636470991         0.7100068922          1.915011075       -0.01431521578         0.6384369267       -0.07080143173       -0.02270600784 
                   1                    1          15.05985927       -0.01446082698       -0.01167740888       -0.02215932868       -0.02420641771      -3.90260332e-05     -3.554752396e-09      0.0009296294387         0.1182089569       -0.04148698599         -0.125647286         -0.302546773        -0.2479153048         -0.393641823        -0.4731034092 
                   0                    2           2.19463155        -0.4921908567        -0.2132809858        -0.2649036972      -0.006286739904     -4.692972561e-13     -2.917596969e-26         -2.898409383          -2.77664206         -1.740474122         -1.390240212        -0.6656263025        -0.3223561821        -0.2943891895        -0.1263888908 
                   1                    3           0.02370535         0.2719403149         0.1178398535          0.146361912       0.003473485958      2.592913742e-13      1.612001173e-26          1.595403882          1.701507684           0.95530537         0.7794216791       -0.05097899686         0.3495189893        -0.4819108019         0.0199152224 
                   1                    1          15.07350799       -0.02447456399       -0.01060555893       -0.01317253744     -0.0003126129143     -2.333616233e-14     -1.450797242e-27       -0.09045563819       -0.05019330899       -0.07873007226       -0.05871306857       -0.06252389888       -0.06002386333        -0.1726107117        -0.1285702637 
                   0                    3           2.86635787         -0.676717285        -0.2498979274        -0.2554455353      -0.001056088708     -3.574731185e-17     -1.474367145e-34         -3.118106326         -3.007478497         -2.081561414         -1.273263362        -0.5446765002        -0.4033083824       -0.05460141384        -0.2288071819 
                   1                    4           1.29825285       -0.01652852402      -0.006103647693      -0.006239145594     -2.579450527e-05     -8.731124738e-19     -3.601077336e-36      -0.007807074919          0.102744938       -0.05430771544       -0.02745758169       -0.01060398285       -0.02940494119       -0.07543964933        -0.2285371006 
                   1                    1          15.00728138       -0.01001438369       -0.00369810818      -0.003780204317     -1.562850212e-05     -5.290056936e-19     -2.181838504e-36        0.03827428031        0.09141043592        0.01743546426       -0.02603329329        0.03707444299       -0.02384937841       -0.05374646103        -0.1390258457 
                   0                    4           4.27389722        -0.9092325462        -0.1968793749       -0.07160755061     -3.252824998e-08     -4.514180833e-39     -3.503902196e-78         -1.584133703         -1.314735935         -1.331509372        -0.2936255461        -0.5987456651       -0.03902191673        -0.2368125215       -0.03461235872 
                   1                    1           1.22858274                   -0                   -0                   -0                   -0                   -0                   -0       0.003194702261         -0.119219352     -0.0007347670192      0.0005574964552      -0.002025441204     -0.0003363920179           0.05692541      -0.005641388517 
                   1                    1          14.96506931                   -0                   -0                   -0                   -0                   -0                   -0        0.01790741624       -0.06337935681        0.01799100919      -0.002362147597        0.02299447509     -0.0001688265139        0.04062957425      -0.003418021235 
                   0                    5            5.0255377        -0.7341149139        -0.1171167873       -0.01722612815     -3.444050091e-12      -1.17441446e-57    -5.163047766e-115        -0.6187511826        -0.4985563463        -0.5584223193       -0.06636131817        -0.3178750756     -2.244594055e-05       -0.04731324913     -3.118646784e-24 
                   1                    2           0.03517754         0.1748123243        0.02788862809       0.004102000167      8.201201064e-13      2.796593796e-58     1.229459262e-115         0.1474939754         0.1182777893         0.1324394467         0.0165477787        0.07029333124      8.497631634e-06        0.02766938117     -3.012165008e-24 
                   1                    1          15.05985927       -0.01388501845      -0.002215141966     -0.0003258142597     -6.514061785e-14     -2.221282546e-59    -9.765366723e-117       -0.01037237781      -0.008481961509       -0.00914664013      -0.001350781472      -0.004893046157     -4.827156801e-07     -0.0007286835167     -5.898595345e-26 
                   0                   32          -6.32536885        0.02479086549       0.002529046134      5.982541727e-05      3.223701183e-21      1.259779258e-93     3.021018003e-184       0.004880836039       0.003646780284       0.004667868246      0.0002326544828       0.003392599749      3.549810564e-10       0.001140343726      1.082452421e-46 
                   1                    3           2.50050535      -0.004974087376     -0.0005074327258     -1.200348785e-05     -6.468096633e-22     -2.527645559e-94    -6.061429166e-185     -0.0009791202178     -0.0007319763377     -0.0009363906889       -4.6679578e-05     -0.0006798373338     -6.570624862e-11     -0.0002283807673     -2.464605224e-47 
                   1                    1          15.07350799     -0.0004240694088     -4.326154322e-05     -1.023366019e-06     -5.514422462e-23     -2.154962462e-95    -5.167715178e-186     -8.317293386e-05     -6.224261072e-05     -7.951705273e-05     -3.993883062e-06     -5.765344331e-05     -6.068248015e-12     -1.907844829e-05     -1.851629616e-48 
                   0                   33          -5.65364253         0.1890636697         0.0210513493      0.0007548165034      1.448354696e-18      4.414901081e-85     1.226877981e-168        0.05203952606        0.03815618187        0.04941646935       0.002869282435        0.03522062814      5.485355026e-09        0.01794605312     -1.423733667e-57 
                   1                    4           3.77505285       -0.08494779428      -0.009458536866     -0.0003391449936       -6.5075716e-19     -1.983649791e-85    -5.512459297e-169       -0.02337699513       -0.01708212715       -0.02220530174      -0.001281502567       -0.01583203692     -3.274028348e-09      -0.007468130809     -3.130856284e-56 