ITEM: TIMESTEP
0
ITEM: NUMBER OF ATOMS
4
ITEM: BOX BOUNDS pp pp pp
0.0000000000000000e+00 4.2600002000000003e+00
0.0000000000000000e+00 2.4767999999999999e+00
0.0000000000000000e+00 3.0000000000000000e+01
ITEM: ATOMS id type c_1[1] c_1[2] c_1[3] c_1[4] c_1[5] c_1[6] c_1[7] c_1[8] c_1[9] c_1[10] c_1[11] c_1[12] c_1[13] c_1[14] c_1[15] c_1[16] c_1[17] c_1[18] c_1[19] c_1[20] 
1 1          13.96657637          12.60749982          6.101591428          1.152114661         0.5265791451         0.3340271895      9.121684977e-05       4.49016178e-09          49.36824645          45.85715127          41.37543258           23.3407581          21.58752085          4.171773309           15.3744678          2.508002508          5.047300641         0.9619332655          3.198961643         0.8589451288 
2 1          13.96040904             12.60114          6.110318737          1.186439906         0.5537678678         0.3553904725      0.0001055550746      4.969791151e-09          49.34912584          45.86254844          41.29726388          23.44102805          21.45022726          4.235293023          15.23494468          2.563235101          4.948805098         0.9756745463           3.12437091         0.8550542288 
3 1          13.95830894          12.59875992          6.123712824          1.227769809         0.5903139924         0.3864549231      0.0001864015967      2.017261332e-08          49.37113598          45.88506269          41.22374046          23.52806442           21.3918084          4.317374632          15.22557769          2.614676858          5.055485179         0.9900527592          3.244987546         0.8467725693 
4 1          13.95920714          12.59978972          6.112412393          1.196349724         0.5645301837         0.3657741373      0.0001720633726      1.969298395e-08          49.37615109          45.86365189           41.2949341          23.41658088          21.51633139          4.238287693           15.3560334          2.539135914          5.141602718         0.9239517837          3.306673847         0.7512968852 
