ITEM: TIMESTEP
0
ITEM: NUMBER OF ENTRIES
588
ITEM: BOX BOUNDS pp pp pp
0 4.26
0 2.4768
0 30
ITEM: ENTRIES c_2[1] c_2[2] c_2[3] c_2[4] c_2[5] c_2[6] c_2[7] c_2[8] c_2[9] c_2[10] c_2[11] c_2[12] c_2[13] c_2[14] c_2[15] c_2[16] c_2[17] c_2[18] c_2[19] c_2[20] c_2[21] c_2[22] c_2[23] c_2[24] c_2[25] 
                   0                   68            4.2485028                   -0                   -0                   -0                   -0                   -0                   -0                   -0                   -0      0.0002972593571      -0.007430624725      0.0004892247301       -0.01100951039       0.002323227131      -0.002134420905        0.01029391274      0.0005204018714        0.01430919363      0.0001047662132        0.03466303402     -3.329533319e-05        0.04415150391      -2.69492147e-06 
                   1                    1          -3.65667667         0.8137120297         0.1388539779        0.06751915073        0.02547174737      3.870552671e-06      3.272168883e-11      3.518983774e-53     3.615938187e-106         0.8131171663         0.5564412007         0.7994853887         0.4221176833         0.7253935123        0.09734531028         0.5288589604       0.005371120275         0.4175039025       0.002511010693         0.2207241154      0.0001561611566         0.1865598816       5.15944515e-06 
                   1                    1           15.0587472                   -0                   -0                   -0                   -0                   -0                   -0                   -0                   -0      -0.002525302528      -0.001068039327      -0.002551922258      9.100810576e-06      -0.002734587072       0.000226787844      -0.003469658657     -1.412579464e-05      -0.003984809493     -6.630432556e-06      -0.004094388996      2.766927806e-06      -0.004193766551      2.239549768e-07 
                   0                   70           2.03809771         0.4479502954        0.09104828331        0.05636112946        0.02800968765      3.136814129e-05      2.986242953e-09      7.327663272e-43      2.071906204e-85         0.6770813452         0.7063090644         0.6592151653         0.5371006726         0.5768192198         0.1153469698          0.367809258        0.01375240813         0.2616895205        0.01160752562         0.1018312146         0.0112170109        0.08104592994        0.01098467901 
                   1                    3          -2.55592895         0.7808009151         0.1587019445        0.09824041174        0.04882235813       5.46763194e-05      5.205178463e-09      1.277250232e-42       3.61144144e-85          1.182029006         0.8726162286          1.150910371         0.6578868047          1.007215619         0.2008031999         0.6465156633        0.02387330135         0.4683773498        0.02019907088         0.2197615407           0.01939536         0.1992541537        0.01881807013 
                   1                    1          15.03333621       0.005149671672       0.001046698194      0.0006479319576      0.0003220015625      3.606106086e-07      3.433008282e-11      8.423939077e-45      2.381879596e-87       0.002224054795        0.05868811964       0.002015644157        0.04545126059       0.003302815547       0.001337531775       0.001261441826      0.0001116407934      0.0005924367784      0.0002221357491      -0.003601322838       0.001344793307      -0.007873162838       0.002681055501 
                   0                   71           2.76161532         0.2109423204        0.03309810385        0.01414107237       0.004600996935      2.424015554e-07      5.733714241e-13      2.538280277e-59     8.724108036e-118          0.169414583         0.1376778773         0.1670861871         0.1002412349         0.1533980469        0.01761407936         0.1131770026      0.0001545094746        0.08930193207      4.092979173e-06        0.02393058302      9.379795935e-15      -0.005074262807       4.56381927e-26 
                   1                    4          -3.68782368         0.7071779909           0.11096043        0.04740753364        0.01542470834      8.126441609e-07      1.922211015e-12      8.509510769e-59     2.924731833e-117         0.5673206118         0.4576454111         0.5591553541         0.3324348448         0.5111021104        0.06182014071         0.3687461332      0.0005965011405         0.2849770563      1.763549598e-05         0.1117653798      5.794229305e-15         0.0511420298      7.024888678e-27 
                   1                    1          15.02921883       0.004189142063      0.0006573012887      0.0002808301387      9.137203837e-05      4.813896756e-09      1.138668782e-14      5.040817157e-61     1.732536547e-119       0.002543131984       0.002104163321       0.002490293873       0.001582620056       0.002188076684      0.0003915250896       0.001422835312      4.730299306e-06       0.001115784438      1.055746234e-07      0.0005776731535      1.305611025e-16      0.0001511382618      5.892809375e-28 
                   0                   73           4.94957438       -0.02126307906      -0.002346332204     -0.0005260212953     -8.073769177e-05     -2.171287014e-11     -1.105139617e-19     -8.929346305e-87    -4.843071726e-171      -0.005674932774      -0.004180687813       -0.00563396126       -0.00270234541       -0.00537957832     -0.0003231057467      -0.004465783915     -3.623536368e-07      -0.003796002665      5.193282827e-11      -0.002520876817      6.757788685e-31      -0.002421022136      2.032279303e-57 
                   1                    2          -4.90293652         0.1880380177        0.02074956572       0.004651819303      0.0007139960995      1.920157023e-10       9.77319711e-19      7.896582492e-86     4.282924426e-170        0.05041167271         0.0368188036        0.05006810087        0.02372136834        0.04792447649       0.002719651906        0.04006971257      2.877614581e-06        0.03421002835      3.956811164e-09        0.02146280899      8.059554888e-31        0.01763823536      1.449421848e-57 
                   1                    1          15.00048633       0.001767017121       0.000194986303      4.371373648e-05      6.709511979e-06      1.804395928e-12      9.183997382e-21      7.420518805e-88     4.024718449e-172      0.0004714375066      0.0003452396296      0.0004681928511      0.0002212111035      0.0004479742908      2.565909502e-05      0.0003744419118      2.795107345e-08      0.0003207471509      4.046869354e-11      0.0002230497393      1.070272283e-32      0.0002059991081      1.063205962e-59 
                   0                   74           6.29809791        -0.4252103592       -0.08878847746       -0.05685749485       -0.02937133361     -4.364671653e-05     -5.864270312e-09     -2.233190617e-41     -1.940929837e-82        -0.6911323576        -0.6028879878        -0.6729678473        -0.4541721102         -0.585870341        -0.1184305619        -0.4208915546       -0.01523063114        -0.3373030176      -0.003591718489        -0.1552644371     -2.456228629e-07        -0.1013107451     -8.304119231e-13 
                   1                    3          -2.55592895         0.7993152862         0.1669055933         0.1068813677        0.05521256813      8.204759588e-05      1.102372226e-08       4.19797721e-41      3.648582059e-82           1.30294246          1.018414209           1.26897584         0.7440955133          1.105676085         0.2218547941         0.7976966974        0.02804350436         0.6441037826       0.005779318945         0.3125360518     -6.790193599e-09         0.2582087322     -2.395931751e-13 
                   1                    1          15.03333621       0.005271780818       0.001100804301      0.0007049222678      0.0003641473679      5.411343303e-07      7.270553757e-11      2.768721693e-43      2.406375212e-84       0.004735533842        0.07599570906       0.004468609195         0.0745689574       0.003133512714       0.001796743158      -0.001453142875      0.0003113910599      -0.006337116271      0.0001407639364       -0.03805498548       1.35287995e-08       -0.07186250785       4.56213026e-14 
                   0                   75           7.02161552        -0.2514289416        -0.0332977934       -0.01065312429      -0.002484876558     -1.249566665e-08     -1.822591446e-15     -2.328611887e-71     -1.00467082e-141        -0.1238682147       -0.08549477547        -0.1228211816       -0.05576501437        -0.1164774547      -0.008104334016       -0.09509575249      -4.95408617e-05       -0.07951325084     -9.945552918e-07       -0.04015073126     -7.808750374e-19       -0.03250945922     -5.996783872e-34 
                   1                    4          -3.68782368         0.4519504944        0.05985370696        0.01914928632       0.004466634516      2.246130729e-08      3.276158663e-15      4.185744436e-71     1.805923658e-141         0.2227374963          0.166238543         0.2208429394         0.1102957857         0.2093726446        0.01465623348          0.170859996      9.023563871e-05         0.1429924658      1.766531649e-06        0.07160543001      3.942628539e-19        0.05579143174     -2.081398927e-35 
                   1                    1          15.02921883       0.002677239465      0.0003545580952      0.0001134354884      2.645920372e-05       1.33055056e-10      1.940712839e-17      2.479528253e-73     1.069783117e-143       0.001079203784       0.005142059387       0.001064049432       0.004661319112      0.0009692617032      0.0001201968535      0.0005982648639      4.502805907e-07      0.0002492658793      9.511457309e-09      -0.001454908711       1.05860552e-20      -0.002949240221      7.465200703e-36 
                   0                   42           -0.0114974         0.7091767466         0.1220831632        0.06014235769        0.02302895094      3.894688774e-06       3.74652031e-11      1.123147344e-52     4.151769392e-105         0.7253202113         0.5459577858         0.7128389084         0.3872683674         0.6449928937         0.0891395219           0.46637063       0.004819892744         0.3674638051       0.002395185249         0.1837116129      0.0001616392291         0.1512304256      5.609444794e-06 
                   1                    1          -1.17987667         0.4123213341        0.07098017947        0.03496727337        0.01338922606       2.26440486e-06      2.178258467e-11      6.530073264e-53     2.413873696e-105         0.4221576245         0.3614178154         0.4151165608         0.2612940654         0.3776552807        0.04950080012         0.2813617344       0.003375446906         0.2256027201       0.001489215959         0.1281986183      4.689408671e-05         0.1070620981     -5.658932344e-08 
                   1                    1           15.0587472                   -0                   -0                   -0                   -0                   -0                   -0                   -0                   -0      -0.002660824831        0.01333520239       -0.00268314818         0.0133073973      -0.002840466322      0.0001943593323      -0.003651514417     -8.730377696e-06      -0.004553056536     -5.336614551e-06      -0.008931824393      3.333417492e-06       -0.01336989119        2.3490139e-07 
                   0                   45          -1.49838488         0.1538279376        0.01679596468       0.003682986817      0.0005504150209      1.224018526e-10      5.035705915e-19       8.45879678e-87     6.674462133e-172        0.04006950933        0.02943696562        0.03980190142        0.01904250924        0.03813040215       0.002120127476        0.03195950665      2.364504256e-06        0.02726547818      3.886808316e-09        0.01656452309      2.774985474e-30         0.0132561604       3.86026245e-57 
                   1                    4          -1.21102368        0.06713065186       0.007329774261       0.001607258796      0.0002402016157      5.341627978e-11      2.197586641e-19      3.691426608e-87     2.912741345e-172         0.0175032288        0.01281981903        0.01738725741       0.008291012405        0.01666148215      0.0009201593408        0.01396182722       9.77668493e-07        0.01189496027      2.186019088e-09       0.007036105057      6.733976895e-30       0.005365185524      8.539340217e-56 
                   1                    1          15.02921883      0.0007903909925      8.630018319e-05      1.892373811e-05       2.82811485e-06       6.28919059e-13      2.587421153e-21       4.34625653e-89     3.429438653e-174      0.0001915181629      0.0001674903429      0.0001899933737       0.000122530028      0.0001804496838       1.20994538e-05      0.0001447651739      1.292927794e-08      0.0001166082979      2.014291601e-11      3.390291779e-05      1.425829108e-32     -1.255089916e-05      1.983460688e-59 
                   0                   34            4.2485028                   -0                   -0                   -0                   -0                   -0                   -0                   -0                   -0        0.02959758068        -0.1256512518         0.0464151964        -0.1971630744        0.03453797159       -0.02815899565         0.2942310719       -0.08175070548         0.4355520197        -0.1577629713         0.5191325379        -0.0567336969         0.5540763632      -0.005407744264 
                   1                    1          -1.17987667         0.5572350607         0.2433932895         0.2899488464         0.3048959963        0.08916197783       0.007813167168      8.180428237e-13      7.761829956e-26          3.229591669          3.264305983            2.9609907          2.868812765          1.981370882          1.607600618         0.8835840964         0.6400333292         0.5371215678         0.4278755313        0.07316882421         0.1684991376        0.03081152637         0.1515094328 
                   1                    1           15.0587472                   -0                   -0                   -0                   -0                   -0                   -0                   -0                   -0        -0.0371315113       -0.01092071308       -0.04023184645       0.006889121324       -0.04372944462       0.009975522827       -0.06201573494        0.01029814967       -0.07548969604        0.01513276104       -0.05737939427       0.005400138769       -0.05019561354      0.0004820456522 
                   0                   35           0.68957418         0.5219347382        0.08331910193        0.03658359348        0.01228103907      8.086961336e-07      2.499460182e-12      9.204514742e-58     4.454384597e-115         0.4385500373         0.3528036144         0.4320094555         0.2559796954           0.39368519        0.04935660844         0.2820619548      0.0005293114789         0.2185530603      1.628726674e-05        0.09885764055     -6.041703229e-16        0.05457336841     -2.470172405e-26 
                   1                    2          -2.42613652         0.5460054066        0.08716162538         0.0382707614        0.01284741796      8.459917091e-07       2.61473068e-12      9.629010001e-58     4.659812607e-115         0.4599444506             0.370289         0.4532920419         0.2680798708         0.4143761406        0.05013828004         0.3020049837       0.000523321962         0.2380466223      1.595755085e-05        0.09603587656      1.453294589e-14        0.03676606633      5.627780703e-26 
                   1                    1          15.00048633       0.008544248896       0.001363961991      0.0005988858479      0.0002010447797      1.323863031e-08      4.091701191e-14      1.506810319e-59     7.291978842e-117       0.007075393082       0.005519884317       0.006977902957       0.003857700493       0.006418957504      0.0007237318946       0.004904598531      1.113773146e-05       0.004084797233      2.887881063e-07        0.00250865419      2.441269494e-16       0.001563591773       9.71129308e-28 
                   0                   36           2.03809771         0.5083311732         0.2094263594         0.2420293469         0.2457818199        0.05528043706       0.003504941891      2.772826962e-14      1.043140771e-28          2.786155767          2.800114088          2.528164319           2.47795531          1.699822775          1.294582171         0.6567285785         0.5425757709         0.3050683547         0.4183928648        -0.1126121316         0.1476995719          -0.20329554        0.07275778859 
                   1                    3          -0.07912895         0.3164534289         0.1303750252         0.1506714928         0.1530075348        0.03441395055       0.002181945428      1.726179007e-14      6.493905766e-29          1.701632744           1.54123091          1.550313395          1.292034282          1.072846733          0.788699511         0.6859115531         0.2729884104         0.5773592938         0.1165309332         0.3371310644        0.07851933535         0.3875617644         0.1496201105 
                   1                    1          15.03333621       0.005843814972       0.002407581826       0.002782388324       0.002825527048      0.0006355082331      4.029308643e-05      3.187663588e-16      1.199202798e-30      -0.004279756347      -0.009645292187        -0.0104488995      -0.006184379839      0.0002097694755        0.01496172867      -0.003737819454        0.01675054288      -0.007788997832        0.02204370993      -0.005144468424        0.02423341638       0.004404287704          0.032751939 
                   0                   37           2.76161532         0.3546435216         0.1275717089         0.1359307994         0.1257424616        0.01403489095      0.0003753820026      3.029158842e-18      2.082289968e-36          1.536454436          1.282564259          1.410117222          1.126063373          1.061581243         0.6249493202          0.479032027         0.2428737029         0.2514353751         0.1934673356      -0.005364154935         0.1558666868        0.03966968546         0.1710121178 
                   1                    4          -1.21102368         0.5981805426         0.2151763938         0.2292757499         0.2120909852        0.02367278174      0.0006331603324      5.109310531e-18      3.512217952e-36          2.653525727          2.672946361          2.441139672          2.278304139           1.78339012          1.057962638           0.82464881         0.4160648506          0.478289036         0.3308511537        0.09413771496         0.2133109337        0.03155698876         0.1863378361 
                   1                    1          15.02921883        0.00704293046       0.002533469864       0.002699474569       0.002497142508      0.0002787214624      7.454779742e-06      6.015661862e-20      4.135257674e-38       -0.08574665034       -0.06605995079       -0.09287100391       -0.04877851677       0.007452379713        0.01198473352        0.00340832084        0.01103727501       0.007093413239        0.01883104579        0.00954011011        0.08167038746        0.01417149006         0.1569342764 
                   0                   38             8.508503        -0.7091767466        -0.1220831632       -0.06014235769       -0.02302895094     -3.894688774e-06      -3.74652031e-11     -1.123147344e-52    -4.151769392e-105        -0.7291142309        -0.5608950873        -0.7169269779        -0.3959508088        -0.6504290519       -0.08726366255        -0.4753231388      -0.004484336863         -0.377051287      -0.001868244611        -0.2150283231     -7.437153929e-05         -0.194422325     -1.324850787e-06 
                   1                    1          -1.17987667         0.4123213341        0.07098017947        0.03496727337        0.01338922606       2.26440486e-06      2.178258467e-11      6.530073264e-53     2.413873696e-105         0.4235672937         0.3624996691         0.4162752781         0.2728602555         0.3755451109        0.05312195779         0.2642113054       0.001972208129          0.200627945      0.0009515771577        0.05572941465      6.596455623e-05       0.003633625438      2.056856296e-06 
                   1                    1           15.0587472                   -0                   -0                   -0                   -0                   -0                   -0                   -0                   -0       -0.00271463886       0.002582845539      -0.002751772519        0.00401387937      -0.002984716207      0.0002952174342      -0.003928464802      3.494983421e-06      -0.004736475519      -2.46439125e-06      -0.007335325843      7.492017945e-07       -0.01082794982      4.241736819e-08 
                   0                   39           4.94957438        -0.1637063722       -0.04193734768       -0.03377295071       -0.02266855795     -0.0002315926256     -3.283228247e-07     -1.773135523e-31     -2.357222826e-62        -0.4002309705         -0.329224535        -0.3829755687        -0.2577748979         -0.308914786        -0.1047374169        -0.1475523533       -0.02327202302       -0.07704051099       -0.01917795458        -0.1253759436      -0.002073354376        -0.3122751428       -0.00158419807 
                   1                    2          -2.42613652         0.8693671786         0.2227094348         0.1793521809         0.1203819986       0.001229878989      1.743567363e-06      9.416284815e-31      1.251809645e-61          2.160084924          1.863795068          2.074284772          1.463826019          1.703449746         0.5212609237          1.114016888          0.105867767         0.8583354112        0.04484158003         0.3384556757       0.005980252979         0.1258839873       0.003685559635 
                   1                    1          15.00048633        0.01360442491       0.003485102564       0.002806619962       0.001883816069      1.924594897e-05      2.728447986e-08      1.473521693e-32      1.958913419e-63         0.0324998444         0.0244381563        0.03122374026        0.01711211433        0.02655152625       0.006976969252         0.0187563203       0.002394159076        0.01487018858       0.001721544715        0.01982328971       0.000172426795        0.03167445258      0.0001316509804 
                   0                   40           6.29809791        -0.4604196884        -0.2018607424        -0.2409188049        -0.2538797119        -0.0754459991      -0.006743572319     -8.270536091e-13     -9.562427368e-26           -2.7892049         -2.634159447         -2.541757539         -2.257546435         -1.668603492         -1.313804261         -0.911764335        -0.4721373103        -0.7261494148         -0.247311311        -0.4297825306       -0.06538068799        -0.3666982808      -0.002513544291 
                   1                    3          -0.07912895          0.309115473         0.1355247841          0.161747493         0.1704491559        0.05065275506       0.004527483511      5.552652809e-13      6.419999696e-26          1.838109772          1.926628009            1.6552776          1.759415792          1.123267033         0.8888465994          0.291604678         0.3889429702       -0.04471129817         0.3295223177        -0.4635478869          0.151250684        -0.4605951782         0.1771382545 
                   1                    1          15.03333621       0.005708307968       0.002502680301       0.002986924253       0.003147614272      0.0009353835396      8.360717096e-05      1.025385496e-14      1.185554869e-27       0.007237816592        0.01251547228       0.001280404485        0.01598169096      -0.004403558021        0.02030682525       -0.01943343386        0.01469621856       -0.03109320704        0.01526786686      -0.003588203522        0.01745570011        0.02589703388        0.02487450457 
                   0                   41           7.02161552        -0.6515160113        -0.1699756091        -0.1393898089       -0.09552005593      -0.001138015231     -1.947771808e-06     -4.722268437e-30     -4.099080329e-60         -1.682615473         -1.470419431         -1.615316506         -1.159381316         -1.324227227        -0.4087577692        -0.8910467806        -0.0821692828        -0.7108601124        -0.0289313656        -0.2558919263      -0.003176583945        0.06314532147     -0.0008798800293 
                   1                    4          -1.21102368         0.5892178925         0.1537225002         0.1260613216        0.08638640504       0.001029197939      1.761525396e-06      4.270723985e-30      3.707125275e-60          1.520915672          1.280039258          1.459659126         0.9986918208          1.192331658         0.3748059318         0.7262147333        0.07514988821         0.5247161694        0.03829117545          0.311567417       0.004441350823         0.4272676856       0.002085065036 
                   1                    1          15.02921883       0.006937404925       0.001809916575       0.001484236044        0.00101710671      1.211769524e-05      2.074006087e-08      5.028316687e-32      4.364740017e-62        0.01076943116         0.0143574185       0.009899072507         0.0150156619       0.006356577948       0.005091662333        -0.0022868359       0.001488675841      -0.009742053849      0.0008426312752       -0.02334233203      0.0001139350322       -0.01580772909       7.96153682e-05 
                   0                   46           9.20957458        -0.1715260568       -0.01916772185      -0.004411157496      -0.000698656071     -2.347143206e-10     -1.533381089e-18      -7.94728557e-85    -4.247837751e-168       -0.04798815305       -0.03481511838       -0.04764886608       -0.02234084801       -0.04553897518      -0.002678909873       -0.03791058109     -3.405661069e-06       -0.03232395352     -5.450547839e-09       -0.02088526048     -3.104387833e-30       -0.01805630911     -1.692534648e-56 
                   1                    2          -2.42613652          0.128722543        0.01438450778       0.003310374067      0.0005243097625      1.761424752e-10      1.150733112e-18      5.964078153e-85      3.18780999e-168        0.03594594929         0.0258023194        0.03568881366        0.01648983201        0.03409116484       0.002028926316        0.02833058501      2.608089355e-06         0.0241065641       3.02240891e-09        0.01555050991      -6.56721677e-31        0.01370031793     -7.541257118e-57 
                   1                    1          15.00048633        0.00201433435      0.0002250981643      5.180289358e-05        8.2047413e-06      2.756392394e-12      1.800742264e-20      9.332978678e-87     4.988493092e-170      0.0005596409859      0.0004017938565      0.0005555578717      0.0002553340965      0.0005301772873      3.222860571e-05      0.0004387472276      4.072167047e-08      0.0003727851383      6.520420242e-11      0.0002614215411      3.540682677e-32      0.0002527717977      8.539988596e-59 
                   0                   47          10.55809811       -0.03098477637      -0.003170355669     -0.0006043580946     -7.611272542e-05      -4.78833931e-12     -4.710482012e-21     -3.104176859e-93    -1.342344003e-183      -0.006105173705      -0.004566479685      -0.006066011313      -0.003012306059      -0.005819943958     -0.0003116864253      -0.004883608161     -3.191193266e-07      -0.004126720078     -1.017848698e-09       -0.00200852555     -1.157576223e-26      -0.001222933746     -5.988889673e-47 
                   1                    3          -0.07912895       0.006757433729       0.000691419169      0.0001318037518      1.659933549e-05      1.044283334e-12      1.027303526e-21      6.769863096e-94     2.927502376e-184       0.001331487264      0.0009976397354       0.001322931984      0.0006577328637       0.001269167978      6.809864073e-05       0.001064621149      6.690993626e-08      0.0008998179984      1.941906953e-10      0.0004508781476      2.727917323e-27      0.0002865563422       2.39219831e-47 
                   1                    1          15.03333621       0.000124786742      1.276815267e-05      2.433965531e-06      3.065330833e-07      1.928434969e-14      1.897079059e-23        1.2501627e-95     5.406097913e-186      2.416545484e-05      1.904372043e-05      2.400733026e-05      1.285181304e-05      2.301353052e-05      1.258741164e-06       1.92272229e-05      1.273603596e-09       1.61583597e-05      4.476905743e-12       7.43291219e-06      4.974482693e-29      4.022774797e-06      2.413143032e-49 
                   0                    8           -0.0114974         0.9092325462         0.1968793749         0.1317844345        0.07160755061      0.0001541166679      3.252824998e-08      4.514180833e-39      3.503902196e-78          1.595451556          1.279473705          1.550017516         0.9490024759           1.33629019         0.2922652021         0.9497070981         0.0414535759         0.7591935001       0.009766874605         0.3716554646       0.000117177303         0.3026723372      5.064590192e-06 
                   1                    1           1.29692333                   -0                   -0                   -0                   -0                   -0                   -0                   -0                   -0      0.0002460996315         0.1134554845      0.0002183527702        0.09671546977      0.0002030918453      6.758339044e-05       0.002065123546      7.114120955e-05       0.007127417242      3.448619438e-05       0.000285471722      1.818725226e-06       -0.04715587455      -5.22937498e-07 