ITEM: TIMESTEP
0
ITEM: NUMBER OF ENTRIES
588
ITEM: BOX BOUNDS pp pp pp
0 4.26
0 2.4768
0 30
ITEM: ENTRIES c_2[1] c_2[2] c_2[3] c_2[4] c_2[5] c_2[6] c_2[7] c_2[8] c_2[9] c_2[10] c_2[11] c_2[12] c_2[13] c_2[14] c_2[15] c_2[16] c_2[17] c_2[18] c_2[19] c_2[20] c_2[21] c_2[22] c_2[23] 
                   0                   68           4.19393783                   -0                   -0                   -0                   -0                   -0                   -0                   -0                   -0      -0.001870035862      -0.006250664049      -0.001445878544      -0.005927007745        0.00465722166       0.000453360806       0.007280092225      0.0001086365155         0.0299852841     -2.091158329e-05        0.04449222081     -2.772865531e-06 
                   1                    1          -3.68160258         0.8137120297         0.1388539779        0.02547174737      3.870552671e-06      3.640260861e-09      3.272168883e-11      3.518983774e-53     3.615938187e-106          0.817980092         0.5983329363         0.7709227774         0.2259157271          0.531264222        0.00414655352         0.4212290557       0.001863271942         0.2238713236      0.0001604693126         0.1886127065      7.741368384e-06 
                   1                    1          14.95960117                   -0                   -0                   -0                   -0                   -0                   -0                   -0                   -0       0.002772001127       0.002047009504        0.00282770919     -2.889358937e-06       0.003039796344     -2.205847436e-06       0.003059676361      2.783615668e-06       0.002170057679     -7.222518548e-07       0.001949050504     -9.577045966e-08 
                   0                   70           2.14360063         0.4357015655        0.09378836932        0.03359749328      6.813840247e-05      4.241537726e-07      1.337582424e-08       1.04222765e-39      3.933368568e-79         0.7579371499         0.8483964581         0.6899074124         0.2941380926          0.404942886        0.01910523147         0.2919122788         0.0156739769         0.1172342135        0.01546228695        0.08847464259        0.01569124629 
                   1                    3          -2.48083991         0.7974869205         0.1716656624        0.06149521502      0.0001247172126      7.763504029e-07       2.44824571e-08      1.907642719e-39      7.199446215e-79          1.390131726          1.124574748          1.262959702         0.4938966717         0.7356690668        0.03469003492         0.5269973404        0.02858697643         0.2392787973         0.0273514857         0.2197330527        0.02671734714 
                   1                    1          15.02395833       -0.01367605063      -0.002943883128      -0.001054577389     -2.138767257e-06     -1.331358189e-08      -4.19848043e-10     -3.271403924e-41     -1.234628286e-80       -0.01914485787       0.003175326637        -0.0202256018      -0.004800220922       -0.01382448506     -0.0005755037263       -0.01123267531     -0.0006162911167      -0.007829847023      -0.001856880671      -0.008774503336      -0.003384742988 
                   0                   71           2.77522414         0.2032617411        0.03205356064       0.004532863909      2.549152255e-07      1.168308505e-10      6.520212597e-13      5.362103861e-59      3.99294315e-117          0.166709887         0.1461406517         0.1584867704        0.04653393182         0.1122882655      0.0001649016465        0.09000011707      3.936413846e-06        0.02606675247       1.28368477e-13      -0.005185445266      1.618113076e-23 
                   1                    4          -3.71704472         0.7147893185         0.1127194062         0.0159402487      8.964337281e-07      4.108468399e-10       2.29289501e-12      1.885635017e-58     1.404156581e-116         0.5873906624         0.5113128361         0.5576445024         0.1645508113         0.3858733247      0.0006493096539         0.3021021735      2.539963104e-05          0.126390119       1.25987952e-13         0.0610057934      5.411189255e-24 
                   1                    1          14.99850834      -0.005574302391     -0.0008790451109     -0.0001243104285     -6.990860865e-09     -3.203999364e-12     -1.788119913e-14     -1.470517187e-60    -1.095035024e-118      -0.003765448752      -0.003343619913      -0.003541373105      -0.001161190584      -0.002360063893     -5.995368471e-06      -0.001860508034       -1.3188952e-07     -0.0004447043405     -3.834900914e-15      0.0003182063429     -4.935156147e-25 
                   0                   73           4.88761877       -0.02676618491      -0.003026963861     -0.0001164356194     -4.810051917e-11     -6.922656775e-16     -3.965153848e-19     -1.177051268e-84    -5.421722571e-167      -0.007830001741       -0.00646044629      -0.007619562417      -0.001470087456      -0.006157949385     -1.016394911e-06      -0.005252413831     -1.940439707e-08      -0.003568737218     -2.785966862e-19      -0.003495648832      2.808716408e-33 
                   1                    2          -4.85704864         0.2364937116        0.02674486188       0.001028771634      4.249940867e-10      6.116541451e-15      3.503427753e-18      1.039988418e-83     4.790384951e-166         0.0690197844        0.05670979093        0.06719783072        0.01311446344        0.05423407619      6.864909015e-06        0.04608447968      8.517500762e-08        0.02867406452      1.963841165e-18        0.02386843054      1.176420271e-31 
                   1                    1          14.98355983      -0.000924462367     -0.0001045466205     -4.021505068e-06     -1.661317067e-12     -2.390977904e-17     -1.369502424e-20     -4.065351879e-86     -1.87257859e-168     -0.0002289456691     -0.0001882367597      -0.000222077339     -4.398571562e-05     -0.0001753740736     -2.787048061e-08     -0.0001489572844     -1.494690518e-11     -0.0001181611724     -6.141568013e-21     -0.0001197413321     -8.992211541e-34 
                   0                   74           6.40360083        -0.4595589229       -0.09624971212       -0.03209454572     -4.920094828e-05     -2.495041988e-07     -6.866022104e-09     -3.536024742e-41     -4.481001767e-82        -0.7553284242        -0.8435111722        -0.6878241629        -0.2554749904        -0.4496769597        -0.0162892029        -0.3565333221      -0.003609514856        -0.1634224291     -1.298875882e-07        -0.1329488754     -3.263470576e-13 
                   1                    3          -2.48083991         0.7805035796         0.1634681454        0.05450858762      8.356168129e-05      4.237517989e-07      1.166108319e-08      6.005497514e-41      7.610423267e-82          1.281861515         0.9462713611          1.166731183         0.4194990382         0.7641224574         0.0285689366         0.6075767511       0.006141309936         0.3025013417      2.606418632e-08         0.2506591143     -9.491697802e-14 
                   1                    1          15.02395833       -0.01338480444      -0.002803304451     -0.0009347641762     -1.432993764e-06     -7.266891667e-09     -1.999751469e-10      -1.02987881e-42      -1.30510647e-83       -0.02123094185         -0.714065183       -0.01961215704       -0.02513030554       -0.01447282596     -0.0006126759683       -0.01216394324     -0.0001938395093      -0.004640578073     -7.917652774e-09     -4.999086463e-05     -1.320316058e-14 
                   0                   75           7.03522434        -0.2461132953       -0.03218563956      -0.002285339759     -9.534535179e-09     -6.829298251e-13     -1.117754135e-15     -2.580668118e-72    -1.320430199e-143        -0.1159015477        -0.1022327522        -0.1121945496       -0.02550452884       -0.08745466482     -4.105097848e-05       -0.07229879714     -7.342189526e-07        -0.0355336617     -2.532630915e-19       -0.02728385365     -1.449254324e-34 
                   1                    4          -3.71704472         0.4321526877        0.05651507213       0.004012849926      1.674178145e-08      1.199163007e-12       1.96267517e-15      4.531419814e-72     2.318556007e-143          0.203601982         0.1617653343         0.1971140833        0.04233013366         0.1537796856       7.18121269e-05         0.1272482372      1.372026296e-06        0.06433558497      3.559542083e-19         0.0524126561      4.267312867e-35 
                   1                    1          14.99850834      -0.003370153551     -0.0004407342046     -3.129431059e-05     -1.305612017e-10     -9.351702727e-15     -1.530597144e-17     -3.533839084e-74    -1.808131705e-145      -0.001389132869      -0.006603187462      -0.001335411448      -0.001089026815     -0.0009465376726     -3.341439533e-07     -0.0006738177987     -7.285877158e-09      0.0003161794284      -1.09435707e-20       0.001056183293     -5.336312226e-36 
                   0                   42          -0.06606237         0.7091767466         0.1220831632        0.02302895094      3.894688774e-06      3.958702083e-09       3.74652031e-11      1.123147344e-52     4.151769392e-105         0.7309991662         0.6157541193         0.6870700107         0.2078190936         0.4672421086       0.004158541599         0.3678111987       0.001852545278         0.1813635381      9.306433547e-05         0.1501861344      2.212602233e-06 
                   1                    1          -1.20480258         0.4123213341        0.07098017947        0.01338922606       2.26440486e-06      2.301622737e-09      2.178258467e-11      6.530073264e-53     2.413873696e-105         0.4223399183         0.3769091437         0.3973727879         0.1204005256         0.2780596911       0.003075327307         0.2242086478       0.001206878235          0.128485944      2.960720393e-05         0.1013247202      5.059648248e-08 
                   1                    1          14.95960117                   -0                   -0                   -0                   -0                   -0                   -0                   -0                   -0       0.003112465301       -0.01816483304       0.003302380365      -0.006218752042       0.004913954556      7.394220059e-07       0.006357670476       2.22502221e-06        0.01483623526     -6.536615807e-07        0.02575532579     -3.297040575e-08 
                   0                   44          -2.11639957        0.04540821177       0.004677891567      0.0001161405938      8.425479316e-12      3.680494846e-17      9.789602473e-21      2.039706536e-92     3.291497009e-182       0.009241449172       0.007674442936       0.009034610459       0.001708916578       0.007470399077      3.281273227e-07       0.006393971104      9.143398668e-10       0.003513320353      3.356453586e-26       0.002329876909      4.588091337e-46 
                   1                    3          -0.00403991       0.009182167233      0.0009459342483      2.348523128e-05      1.703748223e-12      7.442468634e-18      1.979592755e-21      4.124568177e-93      6.65586131e-183       0.001868138031       0.001553967441       0.001826361425      0.0003468887308       0.001509983462      6.940040999e-08       0.001290771918      1.540476486e-10      0.0007042073743      6.467806209e-27      0.0004693349029      1.707126611e-46 
                   1                    1          15.02395833     -0.0004631041678     -4.770835487e-05     -1.184481638e-06      -8.59288317e-14     -3.753621727e-19     -9.984109767e-23     -2.080232983e-94    -3.356894984e-184     -9.396786163e-05     -7.792064388e-05     -9.185928842e-05     -1.731819148e-05     -7.594151599e-05     -3.363028284e-09     -6.502337536e-05     -9.292628668e-12     -3.616951959e-05     -3.425301475e-28     -2.460466247e-05     -4.679252742e-48 
                   0                   45          -1.48477606         0.1919018958        0.02139495602       0.000771654563      2.489123685e-10      3.025740605e-15      1.553577096e-18      5.725029078e-85     2.009889277e-168        0.05278493571        0.04363854307        0.05141930383         0.0100806122         0.0416569535      4.012864272e-06        0.03546429827      6.281196281e-09        0.02132477175      1.070801514e-26        0.01673650895       2.32991952e-47 
                   1                    4          -1.24024472        0.08489669295        0.00946504986      0.0003413771407      1.101179164e-10      1.338576516e-15      6.872967934e-19      2.532731809e-85     8.891676241e-169         0.0233449597        0.01929241678        0.02274551413       0.004457339604        0.01843693397      1.652394481e-06        0.01570375736       3.45117416e-09       0.009268294255     -1.647202137e-28       0.006915788225      2.568553441e-48 
                   1                    1          14.99850834      -0.001314797651     -0.0001465855134     -5.286918103e-06     -1.705399501e-12     -2.073057498e-17     -1.064418623e-20     -3.922449412e-87    -1.377056589e-170     -0.0003361074741     -0.0002924228525     -0.0003257469206     -8.021576235e-05     -0.0002506515113     -3.104051661e-08     -0.0002007514841     -4.480237381e-11     -5.643397033e-05     -3.776249531e-29      9.130790491e-06     -1.035100265e-49 
                   0                   34           4.19393783                   -0                   -0                   -0                   -0                   -0                   -0                   -0                   -0       0.001521770062       -0.08924362589       0.007564066681        -0.1102230396         0.2111196049       -0.05672237474         0.3347851483        -0.1371323478         0.4487283833       -0.07247007548         0.5715237365       -0.00812300508 
                   1                    1          -1.20480258         0.5572350607         0.2433932895         0.3048959963        0.08916197783        0.02165100651       0.007813167168      8.180428237e-13      7.761829956e-26          3.309942722          3.381486915          2.483070871          2.191264731         0.8924620812         0.6428138248         0.5422672259         0.4384573523         0.0764696482          0.172674109        0.03378469524         0.1509326207 
                   1                    1          14.95960117                   -0                   -0                   -0                   -0                   -0                   -0                   -0                   -0        0.03906507597         0.0266247966        0.04429771245      -0.006297827464         0.0502392421       -0.00640340504        0.05119217979      -0.007419595569        0.02911762779      -0.003053277462         0.0231948116     -0.0003149313162 
                   0                   35           0.62761857         0.5381390918        0.08725293023        0.01354927904      1.088481315e-06      6.453313558e-10      4.271548973e-12      1.043633528e-56     5.362488737e-113         0.4756934809         0.4158041926         0.4503970977         0.1373222674         0.3058596384      0.0005829739385         0.2365845551      2.094741525e-05        0.09779392889      6.007835774e-14        0.04166299843      4.330975211e-25 
                   1                    2          -2.38024864         0.5511050006        0.08935519997          0.013875735      1.114707155e-06      6.608799521e-10      4.374467558e-12      1.068778806e-56     5.491692396e-113         0.4861811615         0.4243144959         0.4605043252         0.1387576211         0.3167164719      0.0006035655751         0.2483167297      1.829223919e-05        0.09708979834      1.697579838e-13        0.04252731298      1.538152438e-23 
                   1                    1          14.98355983      -0.003615237614     -0.0005861682976     -9.102453988e-05     -7.312456304e-09     -4.335359068e-12     -2.869641836e-14     -7.011167266e-59    -3.602539062e-115       -0.00169335426      -0.002099350643      -0.001447792475       -0.00150999233       0.000185246678      -5.17693106e-06       0.001306718294     -6.434229773e-08       0.004700669687     -2.409625593e-15       0.004419387152      -3.12543323e-25 
                   0                   36           2.14360063         0.4557599952         0.2048884551         0.2645027667        0.08732007327        0.02319486244         0.0088856451      3.068213933e-12      1.293357537e-24          2.926811043          2.957621443          2.106933997          1.961635001         0.6070572022         0.5930999262         0.2459487038         0.4483313766        -0.1754656152          0.141330387         -0.213740338        0.06932399867 
                   1                    3          -0.00403991           0.28364445         0.1275133267         0.1646145835        0.05434407236        0.01443543547       0.005530024451      1.909517866e-12      8.049273548e-25          1.805217722          1.709073852          1.323358757           1.08466048         0.6465695582         0.2785037801         0.5763821216        0.09803311246         0.3869964596        0.07766062145         0.3678918975         0.1421129123 
                   1                    1          15.02395833       -0.01430565613      -0.006431156341      -0.008302364547      -0.002740852542     -0.0007280536457     -0.0002789077248     -9.630685869e-14     -4.059664819e-26       -0.06275600954       -0.03610756654       -0.05117510351        -0.0269760591       -0.05147241791       -0.03056084168       -0.05312593643       -0.03462854414       -0.07676097707       -0.05181370025       -0.09368714979       -0.08497001222 
                   0                   37           2.77522414         0.3375386843         0.1229781284         0.1234004216        0.01479627464       0.001857906736      0.0004322344415      7.050257527e-18      1.167775755e-35          1.497966388          1.258310853          1.202497348         0.8732947399         0.4863572914         0.2351749177          0.279579506         0.1899204723        0.04808880151         0.1648491786        0.07369856589         0.1897161711 
                   1                    4          -1.24024472         0.5977096807         0.2177682774         0.2185160694        0.02620107561       0.003289960213      0.0007653958553      1.248451621e-17      2.067884086e-35          2.806206552          2.855548941          2.176654618           1.61870392         0.8584899333         0.4073711216         0.4951847103         0.3199826428        0.07654040674          0.208941586        0.02612240355         0.1826199694 
                   1                    1          14.99850834      -0.009256747902      -0.003372583899      -0.003384164976     -0.0004057768503     -5.095171332e-05     -1.185370876e-05     -1.933480801e-19     -3.202538337e-37         0.0589189757       -0.06302499273       0.003782945771       -0.02286791052      -0.007985634145       -0.01046258558      -0.006180248137       -0.01442946061     -0.0008270306262        -0.0498195223       0.002088418364       -0.09503589886 
                   0                   38           8.45393803        -0.7091767466        -0.1220831632       -0.02302895094     -3.894688774e-06     -3.958702083e-09      -3.74652031e-11     -1.123147344e-52    -4.151769392e-105        -0.7260903165        -0.6169653936         -0.683029525        -0.2019900678        -0.4738851275      -0.005567812518        -0.3775155245      -0.002455515669         -0.207751959     -8.855166392e-05         -0.179402704     -1.379294968e-06 
                   1                    1          -1.20480258         0.4123213341        0.07098017947        0.01338922606       2.26440486e-06      2.301622737e-09      2.178258467e-11      6.530073264e-53     2.413873696e-105         0.4242477431          0.359668714         0.3986937827          0.123532068         0.2693356339       0.002541372352         0.2096278245       0.001305368907        0.08520506667      9.023828773e-05        0.05795404503      2.730765467e-06 
                   1                    1          14.95960117                   -0                   -0                   -0                   -0                   -0                   -0                   -0                   -0       0.003076789464       -0.04394119726       0.003234186204      -0.009242236072       0.004731398142      9.451977209e-06        0.00615485268      3.387524941e-06         0.0150576633     -1.752648496e-06        0.02608523676       -8.7232231e-08 
                   0                   39           4.88761877        -0.1633723831       -0.04296051149       -0.02454576755     -0.0003122561557     -7.489866815e-06     -5.791843889e-07     -2.665479125e-30     -5.153494627e-60        -0.4338583034        -0.3759525869        -0.3767372134        -0.1791090906        -0.1731042903       -0.02452496995        -0.1058641974       -0.02197250754        -0.1724073137      -0.003438383939        -0.3824080008      -0.002621560695 
                   1                    2          -2.38024864         0.8601593445         0.2261880784         0.1292340292       0.001644035822      3.943432057e-05      3.049419092e-06      1.403380873e-29      2.713326742e-59           2.27098339          2.078748768          1.966181377         0.9619882029           1.12182265         0.1213942967         0.8535474777        0.05610171611         0.3147915723       0.008524998925         0.1038807975       0.005032078226 
                   1                    1          14.98355983      -0.005642627835      -0.001483789202     -0.0008477726074     -1.078484161e-05     -2.586883423e-07     -2.000412733e-08     -9.206150034e-32     -1.779936833e-61      -0.005207777447      -0.004379386769       -0.00329146867      -0.003600962417      0.0003011702681      -0.001296015502      0.0006251060871     -0.0009119714765      -0.006335422893     -0.0001164625977        -0.0135079247     -9.031995743e-05 
                   0                   40           6.40360083        -0.5039283228        -0.2125276372        -0.2561942293       -0.06418082545       -0.01389865649       -0.00464747771     -1.061704745e-13     -1.502978682e-27         -2.932114451         -2.853759265         -2.163725432         -1.798717702        -0.9054455922        -0.4965889457        -0.6568137756        -0.2839149543        -0.2872160141         -0.126283108        -0.2688760944        -0.1278813425 
                   1                    3          -0.00403991          0.291008788         0.1227305697         0.1479471758        0.03706317621       0.008026203326       0.002683827827      6.131138042e-14      8.679409051e-28          1.688263875          1.744796849           1.22193239          1.170697565         0.2785664381         0.3621305901        0.01041275191         0.3152878498        -0.3361393731         0.1033031337        -0.4038088339        0.06458155738 
                   1                    1          15.02395833       -0.01467707777      -0.006189937178         -0.007461741      -0.001869287603     -0.0004048029313     -0.0001353593134     -3.092249911e-15     -4.377474733e-29       -0.03382911547        0.01754633425       -0.04340916528       -0.01595328264       -0.05310483652       -0.02836467129       -0.05477567752       -0.03257580125       -0.06781161405       -0.04978696942       -0.08745158878        -0.0868281687 
                   0                   41           7.03522434        -0.6631292122        -0.1696337479       -0.09141072345     -0.0009225947782     -1.866302031e-05     -1.288572225e-06     -6.178862101e-31     -7.080157445e-62         -1.656764539         -1.516868188         -1.441838084        -0.6857893044        -0.8563258233       -0.08140997563        -0.6674306814       -0.03007398737        -0.2247730705      -0.005584616497        0.03462049019        -0.0027644725 
                   1                    4          -1.24024472         0.5863333899         0.1499887633         0.0808246091      0.0008157507072       1.65016889e-05      1.139344953e-06      5.463298999e-31      6.260216923e-62          1.463954968          1.324815271          1.272969184         0.6088985365         0.7098545212        0.07538436231         0.5246530568        0.03913238753          0.268182976       0.006771558213         0.2896276305       0.004805648756 
                   1                    1          14.99850834      -0.009080562942      -0.002322880513      -0.001251733165     -1.263355587e-05     -2.555621551e-07     -1.764506974e-08     -8.461027683e-33     -9.695216881e-64       -0.01628852162       -0.01806711838       -0.01350769855       -0.01105888602       -0.00423156441      -0.001606772412       0.002120514084      -0.001055648732        0.02279671448     -0.0003231021847        0.02522046095     -0.0003943756053 
                   0                   46           9.14761897        -0.1989491239       -0.02260476336     -0.0008879850444     -3.975404381e-10     -6.044698299e-15     -3.587933794e-18     -2.109116693e-83    -2.260050612e-165       -0.05924163124       -0.04881181655       -0.05768858795       -0.01129638561       -0.04660221102     -4.582664466e-06       -0.03963326796     -1.018692807e-08       -0.02431438631     -1.438582666e-23       -0.01953075886     -1.873053176e-41 
                   1                    2          -2.38024864         0.1466810506        0.01666602181      0.0006546929017      2.930982956e-10      4.456630316e-15      2.645308952e-18      1.555007865e-83     1.666288304e-165        0.04371995581        0.03599209996        0.04256734067        0.00831344763        0.03438100838      3.466142215e-06        0.02924078207      5.218375398e-09        0.01819391981      4.736942981e-24        0.01533068453      8.645833689e-42 
                   1                    1          14.98355983     -0.0009622247137     -0.0001093287647     -4.294772143e-06     -1.922718868e-12     -2.923540439e-17     -1.735317301e-20     -1.020082002e-85    -1.093081744e-167     -0.0002342377729     -0.0002552187221     -0.0002243740399     -9.436028712e-05     -0.0001484260354     -2.502167523e-08     -9.226916009e-05     -6.031936682e-11      0.0001132217682      6.164279499e-27      0.0002593292624     -2.416985096e-44 
                   0                    8          -0.06606237         0.9092325462         0.1968793749        0.07160755061      0.0001541166679      1.002058221e-06      3.252824998e-08      4.514180833e-39      3.503902196e-78          1.615369731          1.408731227          1.460349963         0.5576812564         0.9368743883        0.03930266492         0.7395943336       0.008141521376           0.36150045       7.28476095e-08         0.2986003813      4.595710581e-14 
                   1                    1           1.27199742                   -0                   -0                   -0                   -0                   -0                   -0                   -0                   -0     -0.0001896674568        0.07209272732      -0.000334376311        0.01746106922       -0.00157934658      0.0005029722023      -0.003804928545      0.0005098543311       -0.04133552969      1.147282424e-07       -0.07678030125      2.226448507e-13 
                   1                    1          14.95960117                   -0                   -0                   -0                   -0                   -0                   -0                   -0                   -0       0.008285248329       -0.07257499442       0.008946569481       -0.02002755968        0.01421089751     -9.867800995e-05        0.01839340059     -6.787442743e-05        0.03956365947     -4.025156305e-09        0.06955281214     -5.261733876e-15 
                   0                   10          -2.11639957        0.05608587546        0.00580706479      0.0001477799088      1.188993196e-11      5.585365213e-17      1.556712646e-20       7.40527854e-92     3.117221499e-181        0.01164306035        0.00972936435        0.01137951445       0.002204816062       0.009385552531      4.257856553e-07       0.008003837002      1.138626187e-09       0.004095550459      6.752744765e-26       0.002419856751      1.861374809e-45 
                   1                    3           2.47276009       -0.01067230186      -0.001104997432     -2.812030271e-05     -2.262475925e-12     -1.062811324e-17      -2.96219095e-21     -1.409113565e-92    -5.931605511e-182      -0.002214757766      -0.001852332735       -0.00216468091     -0.0004207499412      -0.001785298304     -8.636117544e-08        -0.0015201531     -1.718362358e-10     -0.0007659700589     -9.254019806e-27      -0.000456855215     -5.805582596e-46 
                   1                    1          15.02395833     -0.0005720023245     -5.922443986e-05     -1.507161129e-06      -1.21261702e-13     -5.696339512e-19     -1.587642601e-22     -7.552412267e-94    -3.179156835e-183     -0.0001183059774      -9.87068827e-05     -0.0001156200031     -2.231505437e-05     -9.534005807e-05     -4.378116983e-09     -8.133594109e-05     -1.155887714e-11     -4.233394056e-05     -6.890289184e-28     -2.632601328e-05     -1.898358308e-47 
                   0                   11          -1.48477606         0.5303955396        0.07084651299       0.005467105172      3.117899538e-08      2.784544046e-12      5.270514099e-15      2.140367208e-70     3.903056847e-140         0.2650304308         0.2157510622         0.2563437024        0.05621627597         0.1991243136      0.0001291234955         0.1645950756      8.136994267e-06        0.08525082164      6.323672943e-11        0.07004473462      3.909457859e-17 