ITEM: TIMESTEP
0
ITEM: NUMBER OF ENTRIES
582
ITEM: BOX BOUNDS pp pp pp
0 4.26
0 2.4768
0 30
ITEM: ENTRIES c_2[1] c_2[2] c_2[3] c_2[4] c_2[5] c_2[6] c_2[7] c_2[8] c_2[9] c_2[10] c_2[11] c_2[12] c_2[13] c_2[14] c_2[15] c_2[16] c_2[17] c_2[18] c_2[19] c_2[20] c_2[21] c_2[22] c_2[23] c_2[24] c_2[25] 
                   0                   94           0.63868477       -0.02660979852      -0.003037512294     -0.0007301759449     -0.0001218229822     -5.903199741e-11     -5.825788165e-19     -6.728190524e-84    -1.661836111e-165      -0.008089537843       -0.00591765107      -0.008032151954      -0.003777637651      -0.007679260584     -0.0004492344674      -0.006450806633     -8.064839051e-07      -0.005554683127      5.063360936e-10      -0.003802460792      1.776059549e-29      -0.003828894191      3.053360818e-55 
                   1                    2          -4.95553052         0.2548315205        0.02908905439       0.006992606355       0.001166650539      5.653261014e-10      5.579127008e-18      6.443322071e-83     1.591474744e-164        0.07725335269         0.0562936646        0.07670921797        0.03623899651        0.07333369688       0.004288305081         0.0612214429      6.325663143e-06          0.052348996      1.098387511e-08        0.03296668931      1.519597211e-29        0.02762550029      1.372676565e-55 
                   1                    1          15.09128835     -0.0009315694692     -0.0001063387877     -2.556237384e-05      -4.26484142e-06     -2.066622431e-12     -2.039521789e-20     -2.355439434e-85    -5.817841059e-167     -0.0003462342266     -0.0002524744815     -0.0003443708875     -0.0001594877506     -0.0003326348946     -1.485751945e-05     -0.0002872838915     -1.574941384e-08     -0.0002494094009     -1.651055153e-11     -0.0001555821156      1.522573656e-31     -0.0001390915825       2.94762356e-57 
                   0                   77          -3.62131543         0.5385746901        0.08661564351         0.0384760991        0.01308945589      9.479208019e-07      3.284077292e-12      2.988307046e-57     4.473916771e-114          0.462883686         0.3751466222          0.455856101         0.2741764619         0.4146871797        0.05302307924         0.2949503088      0.0005756894001          0.226946338      2.358675373e-05        0.08928305552       5.93254313e-14        0.03774752086     -6.412396358e-24 
                   1                    2          -2.47873052         0.5398703001        0.08682400848        0.03856865826        0.01312094424      9.502011463e-07      3.291977559e-12        2.9954958e-57     4.484679348e-114         0.4621269047         0.3745885181         0.4551383218         0.2735477443            0.4143008        0.05262818409         0.2970258897      0.0005534530097         0.2308635945      1.886795515e-05         0.0838296873      2.457114901e-13        0.02966277099      2.955219197e-23 
                   1                    1          15.09128835      -0.003319809398     -0.0005339044569     -0.0002371691759     -8.068425696e-05     -5.843045441e-09      -2.02432659e-14     -1.842011888e-59    -2.757751379e-116      -0.004785179377      -0.002822270853      -0.004784030081      -0.001176153434      -0.004793899629      7.472300039e-06      -0.005014670922     -4.464629257e-06      -0.005351975394     -1.730452948e-07      -0.006637837037      4.709409296e-17      -0.004772760546      1.192706304e-25 
                   0                   78          -2.15909248          0.458408501        0.09850548764        0.06533345425         0.0351298172      7.001144219e-05      1.345354602e-08      8.845908913e-40      2.700385299e-79         0.7904270616         0.5752472165         0.7678797487         0.4242117672         0.6701934606         0.1405943542         0.4326215625        0.01918517662         0.3169529374        0.01642821367         0.1640654233        0.01777460614         0.1692141471        0.01940707224 
                   1                    3          -2.54484874         0.7846116989           0.16860193         0.1118246988        0.06012817278      0.0001198315399      2.302708081e-08      1.514065207e-39      4.621977761e-79          1.350181444           1.16056193          1.311390535         0.8926140424          1.134125376         0.2468960847         0.7102515398        0.03291587766         0.5075051554        0.02750660465         0.2220786827        0.02384732212         0.1841518325        0.02025471234 
                   1                    1          15.04864616       0.004311282402      0.0009264334636      0.0006144540752      0.0003303921335       6.58450046e-07      1.265291461e-10      8.319481715e-42      2.539683185e-81       0.005323874772         0.1035563059       0.005083675016        0.09453758808       0.003413320408       0.001829584773     -0.0003657985789       0.000198255401      -0.003984564122      0.0001065049919       -0.02874006251     -0.0002975773929       -0.05622178118     -0.0007336161621 
                   0                   79          -1.32057934         0.2086803808         0.0347406338        0.01627664423       0.005885042488      6.591577113e-07      3.858185915e-12      2.244385795e-55     6.038646714e-110         0.1978393309         0.1593497156         0.1949850737         0.1148942731         0.1787670568        0.02105342068         0.1348834584      0.0004254926388         0.1098603867      9.412709734e-05        0.03519542987      5.812191274e-05       0.002073962956      3.682564217e-05 
                   1                    4          -3.69698525         0.7657517697          0.127480608        0.05972707679        0.02159513838      2.418776418e-06      1.415759681e-11      8.235764127e-55     2.215878844e-109         0.7235346804         0.5844009953         0.7123497198          0.425302701         0.6480169103        0.08325549499         0.4674014521       0.001443121271         0.3649416964      0.0003091423697         0.1484292273      0.0001905950057        0.06637285755       0.000125571472 
                   1                    1          14.99419212        0.01180695632       0.001965595158      0.0009209185206      0.0003329706384      3.729457593e-08      2.182928381e-13      1.269854164e-56     3.416614333e-111         0.0123292151       0.009527467337        0.01218908674        0.00651609643        0.01140838287       0.001018621124        0.00932769964      3.037959348e-05       0.008006438097      5.032057361e-06       0.004011142702      2.981844974e-06       0.001714485106      1.954324864e-06 
                   0                   68           0.00090789                   -0                   -0                   -0                   -0                   -0                   -0                   -0                   -0      -0.001707659004      -0.008634698379      -0.001558971441       -0.01108517927     -0.0001141681571      -0.001674012401       0.005124309386       0.000518598401       0.007510169482      0.0001320794106        0.03056021214     -2.495864887e-05        0.04608314168     -5.593138889e-06 
                   1                    1          -3.80139348         0.8137120297         0.1388539779        0.06751915073        0.02547174737      3.870552671e-06      3.272168883e-11      3.518983774e-53     3.615938187e-106         0.8175282283         0.5556604969          0.804380233          0.417658826         0.7325475465        0.09423935699         0.5433695118       0.004560611585         0.4361503858       0.001922527991         0.2339358449      0.0002388718508         0.1963591758      1.869576267e-05 
                   1                    1          15.06896073                   -0                   -0                   -0                   -0                   -0                   -0                   -0                   -0      -0.001589620052      -0.001421588387      -0.001582499964        -0.0010857904      -0.001514946311     -7.860358217e-05      -0.001232340748      2.285938167e-05      -0.001000360501       5.51129092e-06      0.0005949136637     -8.737651757e-07       0.001413433198     -1.958074738e-07 
                   0                   69           0.63868477        -0.1507071045       -0.04008605765       -0.03349717158       -0.02345408876     -0.0003277878021     -6.822994192e-07     -7.873262189e-30     -4.800732376e-59        -0.4059993212        -0.3177193747        -0.3887479549        -0.2387123364        -0.3184456441        -0.1014969888        -0.1703108157       -0.02325473462        -0.1121259067       -0.02388410232        -0.1560983207      -0.004873403847        -0.4010414821      -0.003272343129 
                   1                    2          -2.47873052          0.857992858         0.2282145309         0.1907032457         0.1335268215       0.001866133611       3.88440897e-06      4.482338605e-29      2.733112088e-58          2.295241459          1.993837441          2.196564355          1.575501835          1.786913682         0.5838289203          1.160268956         0.1364294754         0.8892260997        0.06521855222         0.3543941073        0.01008598837         0.1344689615       0.006311091959 
                   1                    1          15.09128835      -0.005276031582      -0.001403353258      -0.001172686157     -0.0008210927643     -1.147536343e-05     -2.388628788e-08     -2.756311993e-31     -1.680665003e-60       -0.02708085796       -0.01987116892       -0.02664629846       -0.01310096281       -0.02481548744      -0.002623636716       -0.02007498788     -0.0004485756749       -0.01674814905      -0.000769035156       -0.01135727194     -0.0001707359461       -0.01646872495     -0.0001145598813 
                   0                   70           2.10090772        -0.4491418677       -0.09753049642       -0.06550546311       -0.03573176093     -7.911979117e-05     -1.728832096e-08     -3.162001898e-39     -3.465104214e-78        -0.7980141797        -0.5790314913        -0.7754293607        -0.4211372663        -0.6701820533        -0.1443361135         -0.478003655       -0.02219797926        -0.3806307089      -0.005672990603        -0.2039336197     -3.671533503e-07        -0.1804191779     -3.867417072e-12 
                   1                    3          -2.54484874          0.790715447         0.1717026971         0.1153225412        0.06290585971      0.0001392906018      3.043613481e-08      5.566712712e-39      6.100325142e-78          1.395944694          1.156653523          1.355301005         0.8659606846          1.166494891         0.2591887542         0.8215453908        0.04087382726         0.6474771875        0.01099828918         0.2938685021      5.463962157e-07         0.2399689826      1.346975487e-12 
                   1                    1          15.04864616       0.004344821262       0.000943471551      0.0006336740111      0.0003456549607      7.653736506e-07      1.672403975e-10      3.058795909e-41      3.352005134e-80        0.00555366893        -0.1327294837       0.005427500758        -0.1162859153       0.005181979052      0.0004787766827       0.006607585345      0.0004127379005       0.008999145281      0.0002097012098        0.02860689516      4.579288322e-08        0.05401556883      3.290509991e-13 
                   0                   71           2.93942086        -0.2771189628       -0.03712101505       -0.01212421389      -0.002896467901       -1.7220444e-08     -3.056609936e-15     -1.820594478e-70    -5.351528433e-140        -0.1402640482       -0.09807528275        -0.1390096955       -0.06408400351         -0.131382949      -0.009735241562        -0.1054217352      -5.48748973e-05       -0.08657701693     -1.327363947e-06       -0.04361564243     -1.365635913e-18       -0.03882567069      7.439780346e-33 
                   1                    4          -3.69698525         0.4573071508        0.06125782752        0.02000761569       0.004779808173      2.841751463e-08      5.044077701e-15      3.004380737e-70     8.831197242e-140          0.230859707          0.176218421         0.2287638868         0.1193877819         0.2160381674        0.01624908561         0.1730040779      9.155071082e-05         0.1420410855      2.032967391e-06        0.06809542332      4.255737571e-18        0.05300737679       2.12341549e-32 
                   1                    1          14.99419212       0.007051117306      0.0009445208258      0.0003084929789      7.369879974e-05      4.381633412e-10      7.777351284e-17      4.632387875e-72     1.361662672e-141       0.003850065459     -0.0007001934602       0.003826680385      -0.001609126126       0.003688040779      0.0001780388313       0.003267260084       1.41121659e-06       0.003016242654      3.004094214e-08       0.003093998248      7.848164934e-20       0.004421147484      3.572696328e-34 
                   0                   73           4.89868497        -0.2291308542       -0.02655292725       -0.00658063057      -0.001138413285     -7.110661853e-10     -9.352823086e-18     -9.567707652e-82     -3.51835897e-162       -0.07213229797       -0.05244342355       -0.07158580763       -0.03397791897       -0.06820615104      -0.004296666777        -0.0562239219     -8.320994855e-06       -0.04763841733     -4.202748337e-08       -0.02970609682     -7.028220113e-23       -0.02458647349      -3.15900341e-41 
                   1                    2          -2.47873052         0.1698647553        0.01968484998       0.004878510167      0.0008439557159      5.271445613e-10       6.93365811e-18      7.092961467e-82     2.608313873e-162        0.05349264215        0.03913788059        0.05308686318        0.02531523628         0.0505791518       0.003188644195        0.04172321107      5.676049587e-06        0.03540362408      1.967457089e-08        0.02307638544      8.112942869e-23        0.02058096753      1.121829192e-40 
                   1                    1          15.09128835      -0.001044544608     -0.0001210474997     -2.999928668e-05     -5.189713375e-06     -3.241555367e-12     -4.263695068e-20     -4.361655037e-84    -1.603923184e-164     -0.0004244998322      0.0001806295436      -0.000422968874      0.0003142947502     -0.0004139220983     -1.162582846e-05     -0.0003897753438     -4.708896323e-08     -0.0003865771858     -3.146079476e-10     -0.0006014402704      2.748751533e-25     -0.0009272229124      1.676361144e-42 
                   0                   50          -5.58057954         0.2813625582         0.0329611502       0.008347975716       0.001481730331      1.107606182e-09      1.786544711e-17      8.672643664e-81     2.198135364e-160        0.09166061231        0.06805123346        0.09093291663        0.04475215675        0.08645785649       0.005696876885        0.07078415961      2.061413399e-05        0.05957804634      5.947116372e-07        0.03660927426       2.24681206e-17        0.03017930478      2.107116877e-30 
                   1                    4          -1.22018525         0.1195921743        0.01401002196        0.00354827797      0.0006298043107      4.707841454e-10      7.593645999e-18      3.686276949e-81     9.343097718e-161        0.03896844869        0.02901189994        0.03866995691        0.01911900517        0.03682438475       0.002346483453        0.03024289601      6.935787414e-06        0.02547311406      2.115184078e-07        0.01500123516      1.821303966e-17        0.01135272259       3.50874418e-30 
                   1                    1          14.99419212        0.00376908264      0.0004415416885      0.0001118279936      1.984899521e-05      1.483729484e-11      2.393223427e-19      1.161771875e-82     2.944582924e-162       0.001282516105       0.000802517429       0.001273174523      0.0004433492164       0.001216211261      7.265941906e-05       0.001026534227      2.892178585e-07      0.0009095094801      8.386399005e-09       0.000874351454      2.171940614e-19       0.001024128831      2.953681573e-33 
                   0                   42          -4.25909231         0.7091767466         0.1220831632        0.06014235769        0.02302895094      3.894688774e-06       3.74652031e-11      1.123147344e-52     4.151769392e-105         0.7224225539          0.598328641         0.7096801893         0.4331607513         0.6395295111         0.0918385827         0.4531738392       0.004256477976         0.3509458567       0.001888410399         0.1701006955      6.010862787e-05         0.1337690224      8.036406991e-07 
                   1                    1          -1.32459348         0.4123213341        0.07098017947        0.03496727337        0.01338922606       2.26440486e-06      2.178258467e-11      6.530073264e-53     2.413873696e-105         0.4174690751         0.2531330875         0.4102061114         0.1745735446         0.3712061846        0.05139518652         0.2711521531        0.00317222702          0.214877616        0.00120546988         0.1374087778      1.577719291e-05         0.1316803069     -4.868828951e-08 
                   1                    1          15.06896073                   -0                   -0                   -0                   -0                   -0                   -0                   -0                   -0      -0.001889390031        0.04815993991      -0.001943968973        0.03754719444      -0.002279976623      0.0004275865256      -0.003341024093      4.514514377e-07      -0.003727296503      1.645621337e-06      -0.003317591171     -4.496808414e-07       -0.00657193091     -1.210219948e-08 
                   0                   43          -3.62131543         0.8444129878         0.2153110039         0.1725826205         0.1152184852       0.001131277873      1.527580049e-06      5.596605019e-31      4.581648782e-62          2.081605888          1.800634367          1.998405817          1.424262883          1.630152457         0.5136698108          1.015170321        0.09541113864         0.7472406956        0.03892078829         0.3155147517       0.005435715981         0.2230168185       0.002935693382 
                   1                    2          -0.00193052         0.2690525184        0.06860383328        0.05498942974          0.036711685      0.0003604553281      4.867277804e-07      1.783227753e-31      1.459835603e-62         0.6604871638         0.5914715359         0.6339898996         0.4729623285         0.5187721906         0.1613206711         0.3735715374        0.02947506575         0.3064563352       0.004624793527       -0.03522570747       0.001004798468        -0.2495177248      9.806343102e-06 
                   1                    1          15.09128835      -0.005205016546      -0.001327191024      -0.001063810491     -0.0007102142326     -6.973270343e-06     -9.416102722e-09     -3.449783713e-33     -2.824158091e-64       -0.02519650316       -0.01138799099       -0.02517281634     -0.0006926725909       -0.02624777346      0.0009828131567       -0.03447330777      -0.000908173439       -0.04155902417     -0.0004955619467       -0.04727776271      -2.67004773e-05       -0.03327738394      -6.48416465e-06 
                   0                   44          -2.15909248         0.4863407392          0.212016807         0.2523277829         0.2650420084        0.07686402451       0.006666652654      6.430373857e-13      5.506936547e-26          2.858545483          2.836832433          2.589768181           2.53051008          1.757700584          1.387406562         0.6467834158         0.5580589621         0.2796301553         0.4012873711        -0.1325887344         0.1548080085        -0.1991103349         0.1510837256 
                   1                    3          -0.06804874         0.2747498813         0.1197752684         0.1425482646         0.1497309488        0.04342301581       0.003766211377      3.632729712e-13        3.1110496e-26          1.710826105          1.658007031          1.559687568          1.395698081         0.9763766766         0.7874640384         0.6091177762         0.2301993334           0.51259035        0.06587896033         0.3478812091        0.05243390484         0.4020374494        0.03695635383 
                   1                    1          15.04864616       0.004573982083       0.001993995153       0.002373115523        0.00249269144      0.0007228978421      6.269914759e-05      6.047697105e-15      5.179214296e-28       -0.03889522256       -0.07855217985       -0.03686299589       -0.05275103145     -0.0007367294443        0.01835655197       -0.03153178614       0.004256529116       -0.03977529717       0.004150964499         0.0334671807        0.01558564191        0.05257709366        0.02957340703 
                   0                   45          -1.32057934         0.3087997994         0.1209866066          0.135925298         0.1336218784        0.02354322047       0.001104874751      7.920463857e-16      1.482575921e-31          1.454003129          1.632589555          1.310088463          1.403497538          1.035907561         0.6608944985         0.5228052782         0.2832005863         0.3397126685         0.2366388209         0.0617265838         0.2505362779       -0.01743503519         0.3370888789 
                   1                    4          -1.22018525         0.5543709284         0.2172004566         0.2440190499         0.2398838502        0.04226582083       0.001983519559      1.421916371e-15      2.661585246e-31          2.860567662          2.680954703           2.61816768          2.331485083          1.818642568          1.215861543           0.75554342         0.4882899361         0.3881957825          0.382060746        0.04246413663         0.2026385188        0.05839955759          0.129099452 
                   1                    1          14.99419212        0.01747162685       0.006845318062       0.007690536362       0.007560210867        0.00133205515      6.251286241e-05      4.481330275e-17      8.388286949e-33        0.07596187668       -0.06866171659        0.06748116099       -0.07826948723        0.08298789602        0.02660723746        0.07710449784        0.01911384172        0.07729447666        0.02013609937        0.06959764695        0.03433106226         0.1007505734        0.05596601926 
                   0                   34           0.00090789                   -0                   -0                   -0                   -0                   -0                   -0                   -0                   -0        0.01294534776        -0.1333277295        0.02515409024        -0.1910020496      -0.003693357494      -0.004951290353         0.2323506789        -0.0493140178         0.3425327252        -0.1458578945         0.4931337283        -0.1070154542         0.6081360927       -0.01803306497 
                   1                    1          -1.32459348         0.5572350607         0.2433932895         0.2899488464         0.3048959963        0.08916197783       0.007813167168      8.180428237e-13      7.761829956e-26           3.23638108          3.263795074           2.96526154          2.857997519          2.001980745          1.598417469         0.9309490715          0.657989402         0.5892724438         0.4592042112        0.09203659073         0.1860037606        0.04075818954         0.1527040714 
                   1                    1          15.06896073                   -0                   -0                   -0                   -0                   -0                   -0                   -0                   -0       -0.02132277328       -0.01964945162       -0.02165057975       -0.01519424291       -0.02431625484       0.002884778506       -0.01276863135      0.0004464983047      -0.006380117447      -0.004198862387        0.01155419841      -0.003474825273        0.01956142089     -0.0005979107842 
                   0                   35           0.63868477       -0.09172338699       -0.07965513263        -0.1164820703         -0.155114087        -0.2701974492        -0.2142636201     -0.0009731667678     -3.234405223e-07         -0.911352739         -1.607115026        -0.7047349985         -1.499576009        -0.4093055283         -1.046860312       -0.09275598569        -0.5509830429       -0.07168754693        -0.3981897177        -0.2347883826        -0.2855579995       -0.06260100414        -0.3426057787 
                   1                    2          -0.00193052         0.1659849419         0.1441459261         0.2107888763         0.2806983428         0.4889560817         0.3877368216       0.001761066994      5.853060823e-07          2.394744866          2.489121163          1.953161272          2.448763181         0.5718717959          2.037683013       -0.08923409495           1.01642716        -0.1465465365         0.6103983048        -0.2321545643         0.1618050591        -0.1198322877         0.1035023982 
                   1                    1          15.09128835      -0.003211099358      -0.002788607722      -0.004077864037      -0.005430313485      -0.009459210832      -0.007501050666     -3.406912114e-05     -1.132317163e-08        -0.1960004741         0.3937312737        -0.1882187373         0.3743988525         -0.109165251       0.005191216886         -0.149680006       -0.01109614894        -0.1742898634       -0.01581921624        -0.1755508151        0.02190722446        -0.2053223401        0.06037053503 
                   0                   36           2.10090772        -0.4680441466        -0.2091096732        -0.2518715303        -0.2682383389       -0.08630941154      -0.008509182432     -2.282283514e-12     -7.016064689e-25         -2.878976714         -2.782897884         -2.601651636         -2.414526026         -1.702568113         -1.429382898        -0.8740884791        -0.5681340306        -0.6318818318        -0.3280067946        -0.2919745038       -0.09483599051        -0.3444552521        -0.1235116508 
                   1                    3          -0.06804874         0.2719682752         0.1215081901         0.1463559927         0.1558663193        0.05015215331       0.004944464506      1.326175566e-12      4.076852636e-25          1.636644572            1.7931531          1.449495466          1.658892264         0.9422784914         0.8723254289          0.178021417         0.4116482249       -0.08728875178         0.3959000655        -0.3663489304         0.2119679355        -0.5196854234        0.09689096796 
                   1                    1          15.04864616       0.004527674451       0.002022844494       0.002436505832       0.002594831882      0.0008349232021      8.231447436e-05      2.207791045e-14      6.787064228e-27        -0.1544698797        -0.2731947226        -0.1249573192        -0.1790323039        0.01173692243       0.007096670728        0.01785573627        0.02384655661        0.01685450096        0.03726642839       -0.01687085143        0.03688629031       -0.03081119492           0.03382389 
                   0                   37           2.93942086        -0.6871787101        -0.1767817434        -0.1429685848       -0.09642603773      -0.001021037664     -1.512410672e-06      -1.15870871e-30     -2.384422419e-61         -1.721174416         -1.516852297         -1.649889891         -1.205939169         -1.349731789        -0.4254714442        -0.8881452934       -0.09720686005        -0.6823383725       -0.04158658538        -0.1730981176      -0.004212357246         0.1093662504      -0.003164831305 
                   1                    4          -1.22018525         0.5547898318         0.1427237373         0.1154248756        0.07784901433      0.0008243289632      1.221036173e-06      9.354769011e-31      1.925049908e-61          1.379627564          1.158876797          1.320331252         0.9031690936          1.073947901         0.3515322237         0.6507916724        0.08176877224         0.4717379242        0.05084195198         0.3370160709       0.006830032932         0.4750547012       0.003627115091 
                   1                    1          14.99419212        0.01748482906       0.004498100014       0.003637745509        0.00245349974      2.597965966e-05      3.848233609e-08      2.948261264e-32      6.067012524e-63        0.05002260386        0.03139659275        0.04856766153        0.01665041207        0.04457510093       0.006728387744        0.04226486301       0.003444379089         0.0443590297       0.003181374149        0.05141979849      0.0005126909663        0.05047951201      0.0002436611444 
                   0                   38           4.26090809        -0.7091767466        -0.1220831632       -0.06014235769       -0.02302895094     -3.894688774e-06      -3.74652031e-11     -1.123147344e-52    -4.151769392e-105        -0.7195260994        -0.5440806613        -0.7067338343        -0.3838365537        -0.6393905501       -0.08928133971        -0.4671564003      -0.006650963061        -0.3716144155      -0.003549402099        -0.2202095043     -0.0003774627055        -0.2035667178     -2.261528429e-05 
                   1                    1          -1.32459348         0.4123213341        0.07098017947        0.03496727337        0.01338922606       2.26440486e-06      2.178258467e-11      6.530073264e-53     2.413873696e-105          0.419164289         0.3219341418         0.4115780101          0.233760739         0.3709524044        0.05361698094            0.2648244       0.003276378536         0.2062118183       0.001972621253          0.091880443      0.0003661350168        0.05984152929      3.917690602e-05 