ITEM: TIMESTEP
0
ITEM: NUMBER OF ATOMS
4
ITEM: BOX BOUNDS pp pp pp
0.0000000000000000e+00 4.2600002000000003e+00
0.0000000000000000e+00 2.4767999999999999e+00
0.0000000000000000e+00 3.0000000000000000e+01
ITEM: ATOMS id type c_1[1] c_1[2] c_1[3] c_1[4] c_1[5] c_1[6] c_1[7] c_1[8] c_1[9] c_1[10] c_1[11] c_1[12] c_1[13] c_1[14] c_1[15] c_1[16] c_1[17] c_1[18] c_1[19] c_1[20] 
1 1          13.97006598          12.61094067          6.097244412          1.138236687         0.5193145338         0.3307874265      0.0001582115964      2.133626955e-08          49.40935173          45.85680549          41.43621241          23.28101794          21.68162175          4.143977363          15.48497865          2.485522081          5.161823958         0.9221940158          3.248770137         0.7758320041 
2 1          13.96048147           12.6010434          6.117133785          1.204981052         0.5697192918         0.3691380806      0.0001732875302      2.165557124e-08          49.37527671          45.94148951          41.27848607          23.49852727          21.40716278          4.286401754          15.20423037          2.614017193          4.970900113           0.98879185          3.102178338         0.8433146858 
3 1          13.95761908          12.59780967          6.131085525          1.255057172         0.6193481356         0.4141496283        0.00051530608      2.525675333e-07          49.38914593          45.93347201          41.19035867          23.58530475          21.34884121          4.399006271          15.20954062          2.702385141          5.145757447         0.9924445341          3.262061779          0.772892338 
4 1          13.96314699          12.60329383           6.11251653          1.197118437          0.572680468         0.3775631316      0.0005002301498      2.522482316e-07          49.40405063          45.86261447          41.32388919          23.38205391          21.59081041          4.257985069          15.45960298          2.565396588          5.323732335         0.8910381508          3.402957189         0.6623653355 
