ITEM: TIMESTEP
0
ITEM: NUMBER OF ENTRIES
576
ITEM: BOX BOUNDS pp pp pp
0 4.26
0 2.4768
0 30
ITEM: ENTRIES c_2[1] c_2[2] c_2[3] c_2[4] c_2[5] c_2[6] c_2[7] c_2[8] c_2[9] c_2[10] c_2[11] c_2[12] c_2[13] c_2[14] c_2[15] c_2[16] c_2[17] c_2[18] c_2[19] c_2[20] c_2[21] c_2[22] c_2[23] 
                   0                   79          -1.39364233         0.2151816921        0.03514748824       0.005593254285       4.93360439e-07      3.129461707e-10      2.166337877e-12      1.289785137e-56     2.015189258e-112         0.1931632136         0.1700875544         0.1828491219        0.05624983395         0.1263856743      0.0002712992829        0.09971252807      7.494998514e-06        0.02580404893      3.248332668e-13      -0.006559367274      7.374236562e-23 
                   1                    4          -3.65534715         0.7466450567         0.1219559996        0.01940767183      1.711879525e-06      1.085871707e-09      7.516835896e-12       4.47534215e-56     6.992375064e-112         0.6713443937         0.5868695234         0.6346328754         0.1952085885         0.4300360404      0.0009672260045         0.3342517232      3.765239677e-05         0.1365885061      2.785722056e-13         0.0627655599      2.003378104e-23 
                   1                    1          15.00728138      -0.006453293579      -0.001054072296     -0.0001677415565     -1.479586726e-08     -9.385247853e-12     -6.496841891e-14     -3.868062408e-58     -6.04354756e-114      -0.002880948947       -0.00279237537      -0.002515731482      -0.001491280594     -0.0008291873887     -1.107958693e-05      -0.000399704319     -2.275351152e-07      0.0006465618419     -1.434925924e-14       0.001245437725     -3.492119533e-24 
                   0                   68           0.01389702                   -0                   -0                   -0                   -0                   -0                   -0                   -0                   -0      -0.001430478964      -0.005237491718     -0.0008402769681      -0.005655757795       0.005230257007      0.0005040402328       0.007151861496      0.0001204645421        0.02763878721     -1.469266937e-05        0.03874751232     -1.082216806e-06 
                   1                    1          -3.72501726         0.8137120297         0.1388539779        0.02547174737      3.870552671e-06      3.640260861e-09      3.272168883e-11      3.518983774e-53     3.615938187e-106         0.8169680341         0.5990049822         0.7688589038         0.2291308583         0.5256887153       0.004468105428         0.4135601466       0.001779218894         0.2169751084      9.608420027e-05          0.182431288      2.631919234e-06 
                   1                    1          14.96506931                   -0                   -0                   -0                   -0                   -0                   -0                   -0                   -0       0.005385885327       0.003693334125       0.005560203143     -0.0004866522252       0.006612198421      1.269399975e-05       0.007024791308      1.062154414e-05       0.006180631918     -1.852903854e-06        0.00600388794     -1.364791951e-07 
                   0                   69            0.7655375        -0.0268085753      -0.003005552327     -0.0001111753304     -3.952525009e-11     -5.134215099e-16      -2.75180299e-19      -2.29624322e-85    -2.208088545e-168      -0.007584980159      -0.006279804305      -0.007379812152      -0.001451328204      -0.005940285123     -6.862434216e-07       -0.00504061739      2.242135094e-11      -0.003359015019      1.741510712e-29      -0.003163334816      4.985484606e-55 
                   1                    2          -4.91842246         0.2192437158        0.02457976423      0.0009092050688       3.23242194e-10      4.198822143e-15      2.250457199e-18      1.877895003e-84     1.805801062e-167        0.06207204786        0.05117644754        0.06042978701         0.0119268746        0.04867145437      4.812902052e-06        0.04123947385      8.717522006e-09        0.02520278577      1.804380171e-29        0.02053588236      2.661516684e-55 
                   1                    1          15.05985927      -0.003380850085     -0.0003790325194     -1.402040657e-05     -4.984559739e-12     -6.474798215e-17     -3.470319951e-20     -2.895810015e-86    -2.784637475e-169     -0.0009258339763     -0.0007646356326     -0.0009009000451     -0.0001750493866      -0.000724686709     -8.423120495e-08     -0.0006168575612     -1.928025705e-10     -0.0004339811282     -1.059221961e-30     -0.0004015701029     -2.518520349e-56 
                   0                   71           2.86635787        -0.2734392729       -0.03680785973      -0.002927143306     -1.869121146e-08     -1.808248216e-12     -3.607905599e-15       -4.1499429e-70    -2.770825704e-139        -0.1408760281         -0.119385354        -0.1361980499       -0.03118098538        -0.1054526941     -6.116017076e-05       -0.08689230865     -1.333808948e-06       -0.04242971294     -8.206180536e-19       -0.03178758922      1.288465748e-34 
                   1                    4          -3.65534715         0.4681775871        0.06302172607       0.005011799788      3.200274119e-08      3.096048632e-12        6.1773882e-15      7.105454286e-70     4.744155726e-139         0.2413565546         0.1981717665         0.2334105719        0.05172555082         0.1812643314      0.0001039302648         0.1498684219      2.332434531e-06        0.07576585357      2.470984916e-18        0.06096597938      2.910236712e-33 
                   1                    1          15.00728138      -0.004046484189     -0.0005447001845     -4.331725644e-05     -2.766014218e-10     -2.675931566e-14     -5.339150008e-17     -6.141282542e-72    -4.100399435e-141      -0.001304925827      -0.009337561839      -0.001196603157      -0.002291381259     -0.0003277712347     -2.800620882e-07      0.0003833423262     -1.033456706e-08       0.003871055639     -1.078692491e-19       0.007205100678     -2.232481398e-34 
                   0                   50          -5.65364253         0.2255707655        0.02560197928       0.001000897132      4.399238163e-10      6.605527346e-15      3.888952237e-18      1.954806282e-83     1.726178752e-165        0.06664344574        0.05499800794        0.06485831864        0.01287559977        0.05214613485      5.514223682e-06        0.04415535472      9.293997404e-09         0.0270354248      8.706587548e-30        0.02219017574     -6.376374111e-56 
                   1                    4          -1.17854715        0.09580491274        0.01087372907      0.0004251032359      1.868454129e-10      2.805514134e-15      1.651724366e-18      8.302496327e-84     7.331464442e-166        0.02829699574        0.02327781572        0.02754555583       0.005463930274        0.02215227173      2.195557284e-06        0.01874742669      5.527272386e-09        0.01108762444      3.640061478e-29       0.008515499066      1.016146367e-54 
                   1                    1          15.00728138      -0.001680060432     -0.0001906846052     -7.454723414e-06     -3.276570858e-12     -4.919824207e-17     -2.896507781e-20     -1.455947839e-85    -1.285665105e-167     -0.0003944968556     -0.0004582402155     -0.0003772987244      -0.000170416758     -0.0002488577255       -5.2463982e-08     -0.0001558776143     -7.885146944e-11       0.000227793732     -6.484706578e-32      0.0005208485545      4.749149925e-58 
                   0                   42          -4.24610318         0.7091767466         0.1220831632        0.02302895094      3.894688774e-06      3.958702083e-09       3.74652031e-11      1.123147344e-52     4.151769392e-105         0.7304454251          0.628054297         0.6868793713         0.2108771427         0.4662954715       0.003920931309         0.3656069908       0.001727779268          0.177158204      0.0001260977805         0.1359320702      4.850591967e-06 
                   1                    1          -1.24821726         0.4123213341        0.07098017947        0.01338922606       2.26440486e-06      2.301622737e-09      2.178258467e-11      6.530073264e-53     2.413873696e-105         0.4229904425          0.357622191         0.3984078568         0.1152684697         0.2776548874       0.002904572035         0.2213033624       0.001149673632          0.137781524      4.766953063e-05         0.1297382321      5.646481119e-07 
                   1                    1          14.96506931                   -0                   -0                   -0                   -0                   -0                   -0                   -0                   -0       0.005850715608       -0.02369714768       0.006106637932      -0.009428950435       0.008560986896      5.518211216e-06        0.01111382292      1.048196184e-05        0.02813709033     -2.872060182e-06        0.04725610174     -2.526053552e-07 
                   0                   43           -3.4944627         0.5378404409        0.08798974761        0.01407612364      1.266756236e-06      8.152607793e-10      5.698084824e-12       4.10733483e-56     8.147814894e-112         0.4863419639         0.4241955856         0.4596627585         0.1409982106         0.3104856191      0.0006845288109         0.2410147913      2.618488007e-05         0.1078841482      5.101481995e-14        0.06147978896      -8.04341342e-24 
                   1                    2          -2.44162246         0.5626517634        0.09204883621        0.01472547467      1.325193451e-06      8.528698852e-10      5.960945348e-12      4.296811859e-56      8.52368485e-112         0.5088324003         0.4457287691         0.4813315085         0.1475685196          0.329052242      0.0006954627015         0.2578753322       2.22164521e-05        0.09279567743      2.629195837e-13        0.02546368057       3.05462761e-23 
                   1                    1          15.05985927       -0.01453154122      -0.002377334516     -0.0003803131102     -3.422561611e-08     -2.202697067e-11     -1.539526376e-13     -1.109732568e-57    -2.201402107e-113       -0.01175514082       -0.01057035442       -0.01104866693      -0.003889046637      -0.007024665241     -2.409389675e-05      -0.004795080856     -6.244142275e-07      0.0003509823545     -1.143804081e-14      0.0008987009431      -1.65302265e-24 
                   0                   44          -2.06536865         0.4471979197        0.09786861477        0.03657536026      8.753590983e-05      6.152163016e-07      2.103108782e-08      8.188613428e-39      2.306294146e-77         0.8065705635         0.8403710317         0.7289024279         0.3163806671         0.4180800904        0.02128643377         0.3000015047         0.0172249872         0.1245453312        0.01483537554         0.0908238948        0.01267523247 
                   1                    3          -2.45309465         0.7918365092         0.1732922692        0.06476261252      0.0001549965378      1.089340328e-06       3.72389549e-08      1.449926931e-38       4.08366816e-77          1.428907965          1.190901892          1.292332412         0.5179504322          0.743016551        0.03734033708         0.5353993513         0.0306274792         0.2522425635        0.02777206853         0.2360086185        0.02533499116 
                   1                    1          15.07350799       -0.02332244158      -0.005104082442      -0.001907492556     -4.565207155e-06     -3.208500223e-08     -1.096821553e-09     -4.270557841e-40     -1.202787583e-78       -0.03692441662        0.06953195319       -0.03434850392       0.002075175108       -0.02349719518      -0.001066221511       -0.02086254494      -0.001336578495       -0.02496153966      -0.005014588993        -0.0371858443      -0.008816165274 
                   0                   45          -1.39364233         0.3317304526         0.1259529442         0.1336196811        0.02002973596       0.002966510792      0.0007703059018      1.127509207e-16        2.8983421e-33          1.639269259          1.415423202          1.254918528         0.9583665936         0.4585972884         0.2606858476         0.2501701582         0.2058028459        0.04916554601         0.1333416735        0.07198153925         0.1183344033 
                   1                    4          -1.17854715         0.5673150722         0.2154007963         0.2285122106        0.03425422963       0.005073234221       0.001317353125      1.928231075e-16       4.95665425e-33          2.808244563          2.858923049          2.156424856           1.68511568         0.8119680257         0.4436444899         0.4670945987         0.3492349278        0.06723043651         0.2308173655        0.02408947944         0.2069481166 
                   1                    1          15.00728138         -0.009948588      -0.003777325656      -0.004007250904     -0.0006006912818     -8.896558468e-05     -2.310145478e-05       -3.3813973e-18      -8.69212073e-35         0.0618333908        -0.1684257726        0.04087599786       -0.04543822562        0.02224896072       -0.01958032113        0.02066853064       -0.03318514514        0.02461258697        -0.1385341111        0.04195257583        -0.2548686961 
                   0                   34           0.01389702                   -0                   -0                   -0                   -0                   -0                   -0                   -0                   -0       0.004170972199       -0.07422314938        0.01318848513        -0.1045088537          0.217251381       -0.05536023166         0.3063907472        -0.1361171033         0.3901694504        -0.0410903964         0.4973795842      -0.002794639751 
                   1                    1          -1.24821726         0.5572350607         0.2433932895         0.3048959963        0.08916197783        0.02165100651       0.007813167168      8.180428237e-13      7.761829956e-26          3.308036841          3.382095905          2.480138751          2.202740206         0.8701612663         0.6275522342         0.5154984456          0.414676176        0.06449043598         0.1652838405        0.02763504902          0.150096263 
                   1                    1          14.96506931                   -0                   -0                   -0                   -0                   -0                   -0                   -0                   -0        0.07638697367        0.04682000838        0.08853723377       -0.02155513473         0.1155695561       -0.01688226995         0.1263840766       -0.02257395843        0.08105402312      -0.006624438471        0.07207420585       -0.00047251519 
                   0                   35            0.7655375        -0.1764147051       -0.04588215145       -0.02561502272     -0.0002973369949     -6.666926935e-06     -4.929333095e-07      -9.26800675e-31     -5.855454834e-61        -0.4555346247        -0.4014973432        -0.3948278672        -0.1937626024        -0.1796296853       -0.02320735622        -0.1085329365       -0.01838659388        -0.1712301868      -0.002425169614        -0.3403357125      -0.002018358121 
                   1                    2          -2.44162246         0.8614200341         0.2240391721         0.1250762726       0.001451874684      3.255411404e-05      2.406957108e-06      4.525499554e-30      2.859175544e-60          2.226566417          2.038455241          1.931723236         0.9410245944          1.103111653         0.1122139031         0.8322257306        0.04621746556         0.2824677112       0.006658752525        0.07888075705       0.003771173887 
                   1                    1          15.05985927       -0.02224779437      -0.005786233467      -0.003230330249     -3.749739749e-05      -8.40771292e-07     -6.216419942e-08     -1.168795471e-31     -7.384359202e-62       -0.04853877414       -0.04113001243       -0.04171722947       -0.01789461706       -0.02462081479      -0.004051711194       -0.01927701263      -0.002735705411       -0.03152511908     -0.0003078378805       -0.04789591049     -0.0002545374116 
                   0                   36           2.19463155        -0.4629811911       -0.09953731234       -0.03554319518     -7.119001284e-05     -4.391137021e-07     -1.376363492e-08     -9.499684583e-40     -3.081169675e-79         -0.806227174        -0.7336487243        -0.7300487597        -0.2870273133        -0.4687539864        -0.0196139538        -0.3667408717      -0.004052337625        -0.1522083552      2.580583594e-07       -0.09445052871      2.223356172e-12 
                   1                    3          -2.45309465         0.7816391036         0.1680462556          0.060006652      0.0001201882472      7.413442426e-07      2.323678687e-08      1.603807041e-39      5.201858626e-79          1.361687063          1.172139774           1.23383377         0.4577415438         0.8014075822        0.03368457519         0.6382397786       0.007962314481         0.3237645771      4.106446451e-07         0.2797182157      2.010402469e-12 
                   1                    1          15.07350799        -0.0230220912      -0.004949568419      -0.001767412363     -3.539977432e-06     -2.183526219e-08     -6.844071952e-10     -4.723790275e-41     -1.532135011e-80       -0.03661346594       -0.07918433194       -0.03313197854       -0.02993302307       -0.01932395266        -0.0013016506        -0.0102777573     -0.0004560132147          0.037783123     -3.639406242e-08        0.08552239406     -1.749891856e-13 
                   0                   37           2.86635787        -0.6706585359        -0.1753851467       -0.09905341859      -0.001203653103     -2.791331218e-05     -2.110606811e-06     -6.206566768e-30     -6.856994226e-60         -1.749360785         -1.605304812         -1.514733447        -0.7346766448         -0.893173936       -0.09461918454        -0.6997117711       -0.03938088219        -0.2400455841      -0.006539022155         0.0408705368      -0.004240113166 
                   1                    4          -1.17854715         0.5659542033         0.1480037242        0.08358903316       0.001015736767      2.355543919e-05      1.781095345e-06      5.237587181e-30      5.786468816e-60          1.475764008          1.336263832          1.277474296         0.6216509443         0.7022001846        0.08412604684         0.5176343574        0.05030161356         0.2773810411       0.008387709334         0.3230838109       0.005986344128 
                   1                    1          15.00728138      -0.009924723442      -0.002595432674      -0.001465839519     -1.781223012e-05     -4.130744468e-07      -3.12337617e-08     -9.184772189e-32     -1.014730562e-61      -0.006026742763       -0.01796317239      -0.001375247281       -0.02263586643        0.02036054152      -0.002370417223        0.03888618818        -0.0016554362        0.09298170508     -0.0005637155306        0.08327537302     -0.0007539458084 
                   0                   38           4.27389722        -0.7091767466        -0.1220831632       -0.02302895094     -3.894688774e-06     -3.958702083e-09      -3.74652031e-11     -1.123147344e-52    -4.151769392e-105         -0.727579473         -0.624982872        -0.6849778075        -0.2025675997         -0.477213328      -0.005253446111        -0.3822824469      -0.002599559697        -0.2121621496      -0.000217432119        -0.1786726581     -9.784638232e-06 
                   1                    1          -1.24821726         0.4123213341        0.07098017947        0.01338922606       2.26440486e-06      2.301622737e-09      2.178258467e-11      6.530073264e-53     2.413873696e-105         0.4248347822         0.3586270071         0.3994155971         0.1223471194         0.2697686025       0.002424947293         0.2100219452       0.001384190615         0.0903027455      0.0001947543557        0.06789780291      1.496177851e-05 
                   1                    1          14.96506931                   -0                   -0                   -0                   -0                   -0                   -0                   -0                   -0       0.005921387012       -0.01899943164       0.006251329291      -0.008579745568       0.009103054066     -2.273799412e-06        0.01168292609      4.354939702e-06        0.02545658494     -3.852978005e-06        0.04278759981     -5.228214165e-07 
                   0                   39            5.0255377        -0.1677136457       -0.01867999509     -0.0006707486057      -2.12689452e-10     -2.555409053e-15     -1.302215733e-18      -4.15728845e-85    -1.223003408e-168       -0.04659067522       -0.03817266415       -0.04541579227      -0.008650543549       -0.03697174467     -3.261819422e-06       -0.03160884065     -5.993456385e-09       -0.01954221852     -1.212705822e-29       -0.01566883504     -1.370964885e-55 
                   1                    2          -2.44162246         0.1228227508        0.01368003404      0.0004912133925      1.557601557e-10      1.871418203e-15      9.536595417e-19      3.044532252e-85     8.956494994e-169        0.03412496945        0.02803875829        0.03325890523       0.006347749855        0.02706133122      2.503512175e-06        0.02312937527      3.423050138e-09        0.01455742369     -2.908157481e-30        0.01220026025      -8.51045988e-56 
                   1                    1          15.05985927      -0.003172128805     -0.0003533126375     -1.268651078e-05     -4.022799306e-12     -4.833289882e-17     -2.463005333e-20     -7.863077803e-87    -2.313183476e-170     -0.0008498268079     -0.0007054043944     -0.0008259100027     -0.0001769183299      -0.000650397428     -6.408643556e-08     -0.0005341869175     -1.412444552e-10     -0.0002616548251     -4.991041967e-31      -0.000179261299     -6.820892993e-57 
                   0                   15          -6.32536885        0.03430546854       0.003515370593      8.502118306e-05      5.520016036e-12      2.228929431e-17      5.635244392e-21      4.800886281e-93     2.778982191e-183       0.006888926755       0.005744122501       0.006734535241       0.001292888001       0.005559614679      2.052576421e-07       0.004743228226      4.474147525e-10       0.002489489784      1.326305318e-26       0.001536961141      3.736931922e-46 
                   1                    3           0.02370535       0.006520294975       0.000668151586      1.615961584e-05      1.049166047e-12      4.236431679e-18      1.071067012e-21      9.124841031e-94     5.281893641e-184        0.00130898457       0.001092669328       0.001279667896      0.0002464886981        0.00105635314      4.183557647e-08      0.0009002798573      7.996563025e-11      0.0004673994478      7.312939828e-28      0.0002878205511      5.620527736e-47 
                   1                    1          15.07350799     -0.0005868250049     -6.013348464e-05     -1.454361602e-06     -9.442469598e-14     -3.812778486e-19     -9.639577766e-23     -8.212335336e-95    -4.753691779e-185     -0.0001172267634     -9.785649733e-05     -0.0001145730227     -2.215391916e-05     -9.439804766e-05     -3.542127236e-09     -8.040337522e-05     -7.624886899e-12      -4.19452179e-05     -2.269859551e-28     -2.578512062e-05     -6.392350236e-48 
                   0                   16          -5.65364253         0.5359583143        0.07185224205       0.005624352764      3.384120828e-08      3.139021396e-12      6.091757501e-15       4.05119606e-70     1.366213885e-139         0.2727183152         0.2241261325         0.2637951726          0.058351646         0.2048091722      0.0001105760388         0.1690706655      2.420353781e-06        0.08569712173      2.442763483e-18        0.06965710676      3.271919368e-33 
                   1                    4           1.29825285      -0.006588445371     -0.0008832675209     -6.913922211e-05     -4.160042788e-10     -3.858746181e-14     -7.488494988e-17     -4.980067146e-72     -1.67946374e-141        -0.0033362149       0.001754803965      -0.003222948741     -0.0007257757395       -0.00236490294     -1.270798073e-06      -0.001744521822     -8.217771532e-08      0.0002574604781      5.905032846e-19       0.001501985354      4.065413053e-33 
                   1                    1          15.00728138      -0.003991839789     -0.0005351584836     -4.189041302e-05      -2.52050725e-10     -2.337956175e-14     -4.537166292e-17     -3.017347654e-72    -1.017561777e-141      -0.001213623059       0.001659997882        -0.0011109399     -0.0004978326552     -0.0004020821781     -9.364771705e-07      3.148355558e-05      -1.83636922e-08      0.0007673510362     -1.819380389e-20       0.001135623775     -2.436939137e-35 
                   0                    8          -4.24610318         0.9092325462         0.1968793749        0.07160755061      0.0001541166679      1.002058221e-06      3.252824998e-08      4.514180833e-39      3.503902196e-78          1.613233636          1.414170794          1.460960017         0.5538622043         0.9441402804        0.04023234369         0.7453999204       0.009159969789         0.3541841164      1.614062537e-07         0.2840250097      2.170169589e-13 
                   1                    1           1.22858274                   -0                   -0                   -0                   -0                   -0                   -0                   -0                   -0     -0.0001367059626       -0.06003334787      2.550747007e-05        -0.0202946255       0.003895063867      0.0003214755516       0.008530089901      0.0003725090868        0.04633487801      1.789259736e-07         0.1057144468      8.291972647e-13 
                   1                    1          14.96506931                   -0                   -0                   -0                   -0                   -0                   -0                   -0                   -0          0.015625185       -0.02591700298        0.01650545963       -0.01510121226         0.0245805364     -0.0003310275403        0.03101443682     -0.0002741187638        0.05058403812     -3.250008394e-08        0.07556349344     -9.053345033e-14 
                   0                    9           -3.4944627         0.8272366054         0.2183836079         0.1257973081       0.001652840959      4.059953459e-05      3.189576729e-06       2.01271001e-29      5.772989212e-59          2.204217639          2.009487076          1.909503418          0.934859058          1.064361195         0.1140610704         0.7891038505        0.05290461553         0.3469903949       0.006785205488         0.2663112975       0.003886588267 
                   1                    2           0.03517754          0.281393171        0.07428546501        0.04279126818      0.0005622311146      1.381035571e-05      1.084967836e-06      6.846443307e-30      1.963742574e-59         0.7512133399         0.7052406531         0.6515463101         0.3200872816         0.4116212877        0.03766816636          0.331134788       0.006979911252       -0.02895320147       0.001123990206        -0.2960894272      0.0001795060598 
                   1                    1          15.05985927       -0.02235053729      -0.005900356608      -0.003398831009      -4.46569739e-05     -1.096930921e-06     -8.617698148e-08     -5.438002845e-31     -1.559764278e-60       -0.05005027816       -0.04872996652       -0.04272432419       -0.02436420042       -0.02271265988      -0.004470364663       -0.01354695772      -0.003004445137        0.01474535464     -0.0004648125579        0.02567442053      -0.000463535422 
                   0                   10          -2.06536865         0.4612072318         0.2083557419         0.2703240527        0.09105423707          0.024549472         0.0094982278      3.997486417e-12      2.157881289e-24          2.963813763          2.990281285          2.125255453          2.005949905         0.6029374528         0.6027494589         0.2592132488         0.4518937413         -0.158597695         0.1584477414         -0.263067689         0.1092271823 
                   1                    3           0.02370535         0.2672569329         0.1207364341         0.1566453695        0.05276343139        0.01422574526        0.00550396233      2.316433667e-12      1.250432984e-24          1.731342535          1.644964858           1.26203272          1.026594085         0.6348663784         0.2728722973         0.5335305603        0.08793483672         0.3845469919        0.03408124469         0.4922295568        0.05356200356 
                   1                    1          15.07350799       -0.02405306073        -0.0108662505       -0.01409804619       -0.00474869634      -0.001280313708     -0.0004953553073     -2.084784819e-13     -1.125386726e-25        -0.1025936284       -0.06549720319       -0.07564194228       -0.04212276614        -0.0942737087       -0.06197206489        -0.1001242414       -0.07207954651        -0.1137262027       -0.09063707688        -0.1484559436        -0.1376520119 
                   0                   11          -1.39364233          0.214261063         0.1734936839         0.3295666808         0.5190466399         0.4388551544         0.3634100674      0.0006106961406      5.858424678e-08           2.83151208          3.060095954          1.473842991          2.620111394        0.04844245081          1.086817687       -0.03593081452         0.6882368311       -0.06674558071         0.2529607034       -0.07212429129         0.1889858785 