ITEM: TIMESTEP
0
ITEM: NUMBER OF ATOMS
4
ITEM: BOX BOUNDS pp pp pp
0.0000000000000000e+00 4.2600002000000003e+00
0.0000000000000000e+00 2.4767999999999999e+00
0.0000000000000000e+00 3.0000000000000000e+01
ITEM: ATOMS id type c_1[1] c_1[2] c_1[3] c_1[4] c_1[5] c_1[6] c_1[7] c_1[8] c_1[9] c_1[10] c_1[11] c_1[12] c_1[13] c_1[14] c_1[15] c_1[16] c_1[17] c_1[18] c_1[19] c_1[20] c_1[21] c_1[22] 
1 1          13.94883438          12.58941014          8.775971001          6.090432079          1.160282788         0.3450634087      0.0001754098222      2.765292622e-08          48.55682834          43.27558318          46.00665749          35.22196156          36.15862752          14.52161632          21.46345565          4.091532345          15.26118349          2.409426789          4.976246464         0.8123197083          3.113149463         0.6137214457 
2 1          13.95039206          12.59095555          8.783207265          6.107906681          1.200569044         0.3700622941       0.000196351917      2.859390193e-08          48.55432003          43.36204403          45.96310849          35.34448497          36.06230004          14.66878255           21.3141555          4.209005461          15.10085985          2.523121971          4.859712886          0.899779793          3.039807141         0.6957127816 
3 1          13.95158671          12.59194936          8.784541487          6.111082626          1.210813762         0.3770936107      0.0001947532125       2.64580388e-08          48.53570388          43.35954218          45.93199631          35.33415496          36.04649322          14.69494353          21.33885161          4.249060457          15.14931061          2.555160054          4.944754352         0.9428009253           3.12008322         0.7888985324 
4 1           13.9582839          12.59904763          8.787101425          6.103484034          1.175466495         0.3529383431      0.0001738111186      2.551706308e-08          48.57441163          43.34373703          45.99198878          35.28351407          36.14922727          14.60564172          21.47912479          4.190928236          15.28560281          2.506420611           5.01832427         0.9239154362            3.1812782          0.758045242 
