ITEM: TIMESTEP
0
ITEM: NUMBER OF ENTRIES
594
ITEM: BOX BOUNDS pp pp pp
0 4.26
0 2.4768
0 30
ITEM: ENTRIES c_2[1] c_2[2] c_2[3] c_2[4] c_2[5] c_2[6] c_2[7] c_2[8] c_2[9] c_2[10] c_2[11] c_2[12] c_2[13] c_2[14] c_2[15] c_2[16] c_2[17] 
                   0                   94           0.61667291        -0.0150463314      -0.001640490212     -5.340106388e-05     -4.621839203e-20     -6.260202497e-88    -3.794873597e-173      -0.003847065256      -0.002790253437      -0.003656593122     -0.0002084044371      -0.002632004021      7.874674399e-12      -0.001768478754      2.858459614e-57 
                   1                    2          -5.01965365         0.1641944094        0.01790199314      0.0005827437872      5.043622515e-19      6.831500811e-87     4.141189054e-172        0.04212640493        0.03029640071        0.04011054037       0.002204737537        0.02914152123      3.653350897e-09        0.01621934139       1.70039193e-57 
                   1                    1          15.07484241      -0.002537846166     -0.0002766994614     -9.007091602e-06     -7.795599198e-21     -1.055900637e-88    -6.400766507e-174     -0.0006301901566     -0.0004549987035     -0.0005989851985     -3.413600165e-05     -0.0004329482347     -6.999356339e-11     -0.0003002116849     -1.082004106e-58 
                   0                   77          -3.64332729         0.4973040501        0.07612735617       0.009717067665        5.9402144e-13      1.219434482e-60     9.066595771e-121         0.3728108803         0.2974695207          0.337536924        0.03875496904          0.191644029      1.112057568e-05        0.05320199456      -8.76582072e-26 
                   1                    2          -2.54285365         0.5085434904        0.07784789086       0.009936680599       6.07446765e-13      1.246994605e-60     9.271507557e-121          0.382006001         0.3064953676         0.3463268148        0.03921204655          0.202240785      7.868672987e-06        0.02763379745      9.638315726e-25 
                   1                    1          15.07484241        -0.0130230773      -0.001993574039     -0.0002544642926     -1.555584985e-14     -3.193376268e-62    -2.374301547e-122      -0.008513724552      -0.007310920891      -0.007533956209      -0.001077162563      -0.003393586269     -1.875925152e-07       0.001829363102     -4.079614304e-26 
                   0                   78          -2.14929308         0.4580611988        0.09641938575         0.0325811567      7.819796185e-09      6.659584663e-41      1.581971068e-81         0.7502606343         0.7045119691         0.6347336102         0.1343853706         0.2859389898        0.01877555024        0.05196751551        0.01847919897 
                   1                    3          -2.51723417         0.7821161792         0.1646311929        0.05563066651      1.335190392e-08       1.13709018e-40      2.701135067e-81          1.282392668          1.015432379          1.080495548          0.231780222         0.4878456421        0.03106219887         0.2240116374        0.01856216746 
                   1                    1          15.06248453       -0.01758518298      -0.003701585171      -0.001250805796     -3.002056212e-10       -2.5566456e-42     -6.073260683e-83       -0.02023290877       -0.05509027492       -0.01736863704      -0.004992180171        -0.0055304994      -0.001278187988        0.02419194617      -0.008212597812 
                   0                   79          -1.51213407         0.2239444601        0.03539444761       0.005043683081      7.733828603e-13      8.381666819e-59     8.808958983e-117         0.1835927239          0.149098689         0.1666143243        0.01869672263        0.09937830981       5.91757324e-05      -0.008792038756      2.752601589e-05 
                   1                    4          -3.71216614         0.7108670236         0.1123526146          0.016010166      2.454949641e-12      2.660592962e-58     2.796228337e-116         0.5816349034         0.4692035826         0.5250099409        0.06231630359         0.2938458583      0.0001792615074        0.04894192658      8.250134611e-05 
                   1                    1          15.07265033       -0.01357997333      -0.002146316342     -0.0003058485201     -4.689787195e-14     -5.082635747e-60    -5.341745358e-118      -0.009611966701      -0.007823130971       -0.00854991548      -0.001170319869      -0.004792526146     -4.657940683e-07     -0.0003102036684     -6.607012602e-07 
                   0                   68           0.04415749                   -0                   -0                   -0                   -0                   -0                   -0     -0.0002141180576       -0.01013829736       0.001541880455      -0.001859608325        0.01465330744      6.713110551e-05         0.0513968864     -1.771322521e-05 
                   1                    1          -3.72562898         0.8137120297         0.1388539779        0.02547174737      3.272168883e-11      3.518983774e-53     3.615938187e-106         0.8131358328         0.5523314311         0.7270408504        0.09580624515         0.4325740715       0.003679279362         0.1993435003      3.212867401e-05 
                   1                    1          14.97827694                   -0                   -0                   -0                   -0                   -0                   -0       0.006084407979       0.002528881048       0.006448963527     -0.0003969913376       0.008906892567       6.98959468e-06       0.009648771776     -2.987667857e-06 
                   0                   69           0.61667291        -0.1332232794       -0.03380243913       -0.01789595656     -2.159605463e-07     -5.235515738e-32     -2.558480172e-63        -0.3201070327        -0.2485936472        -0.2501291294       -0.08140152627       -0.06986660141       -0.02189925955         -0.273218441      -0.001341266421 
                   1                    2          -2.54285365         0.8774639268         0.2226369228          0.117870213      1.422405978e-06      3.448328414e-31      1.685121451e-62          2.138801975          1.831039607          1.692774772         0.5112156568         0.8788574722        0.05687702469          0.223437951       0.004229813468 
                   1                    1          15.07484241       -0.02247060628      -0.005701415731      -0.003018488928     -3.642579907e-08     -8.830679843e-33     -4.315356962e-64       -0.04358904944       -0.03091373436         -0.034139455       -0.01129849428       -0.01675117577      -0.003912734493       -0.05091594949     -0.0002262297629 
                   0                   70           2.11070712        -0.4389791326       -0.09444578245       -0.03378855278     -1.329933871e-08     -9.858250722e-40     -3.495640746e-79        -0.7620063655         -0.564643419        -0.6409792337        -0.1366861679         -0.379146005      -0.005962504851        -0.2527303476     -1.419263578e-11 
                   1                    3          -2.51723417         0.7955613075         0.1711639679        0.06123494998      2.410237414e-08      1.786609488e-39      6.335145149e-79          1.381952531           1.16782431           1.15990006           0.25027181         0.6455136253       0.008288872512         0.1379752349     -4.455069204e-12 
                   1                    1          15.06248453       -0.01788748466      -0.003848468776      -0.001376813098     -5.419203318e-10     -4.017031688e-41     -1.424400742e-80        -0.0232070717       -0.01815803555        -0.0184780869      -0.005372800382      0.0005152359325     -0.0005633179108        0.08899493488     -1.583074275e-12 
                   0                   71           2.74786613        -0.2660238832       -0.03609725815      -0.002960703208     -4.698147894e-15     -1.578458245e-69    -4.010379587e-138        -0.1407762888        -0.1212306221        -0.1319350084       -0.00969989114       -0.08900980781     -3.734189026e-06       -0.03800302334     -1.448568804e-15 
                   1                    4          -3.71216614         0.4860710402        0.06595585179       0.005409710099      8.584318093e-15      2.884112628e-69     7.327648006e-138         0.2570314941          0.179788452          0.240696383        0.01792020163         0.1603207303      9.206898235e-06        0.05611777614      3.304689271e-15 
                   1                    1          15.07265033      -0.009285606928      -0.001259980669     -0.0001033438272     -1.639896167e-16     -5.509634188e-71     -1.39982952e-139      -0.004400476395       -0.02301273976      -0.004050863577      -0.000382764597      -0.002005963703     -4.988456893e-08       0.003996080119      -2.79574003e-17 
                   0                   73           4.87667311        -0.2075155126       -0.02377409453     -0.0009690017348      -5.28275942e-18      -1.03287561e-82    -4.893569686e-164       -0.06333952496        -0.0466684813       -0.05993178127      -0.003727641532       -0.04162061758     -1.360500863e-08       -0.02075211465     -2.584261043e-53 
                   1                    2          -2.54285365         0.1619249012         0.0185509886      0.0007561146066      4.122151094e-18      8.059555596e-83     3.818465318e-164         0.0493745307        0.03646857985        0.04668614323       0.002941285386        0.03240439605      7.588032278e-09        0.01744078998     -1.680049967e-53 
                   1                    1          15.07484241      -0.004146666991      -0.000475064499     -1.936302235e-05     -1.055624413e-19     -2.063937844e-84    -9.778547942e-166      -0.001193295898      -0.000995773877      -0.001118079149     -8.225730571e-05     -0.0007040207794     -3.241250776e-10     -4.214401844e-05      -1.06983859e-54 
                   0                   50          -5.77213427          0.124066873        0.01332958868      0.0004050776057      1.975767674e-19      2.945533034e-88     1.207091341e-174        0.03018308428         0.0220193723        0.02876288767       0.001552562884        0.02069642584      3.957365445e-09        0.01047688137      3.031749344e-36 
                   1                    4          -1.23536614        0.05254525584       0.005645396153      0.0001715599492      8.367843519e-20      1.247502924e-88     5.112317398e-175        0.01279646084       0.009304497377         0.0121970756      0.0006551540558       0.008767059997      1.698664175e-09       0.004146039051      6.930268222e-37 
                   1                    1          15.07265033      -0.002013071537     -0.0002162818722     -6.572666647e-06     -3.205820838e-21     -4.779332764e-90    -1.958589882e-176     -0.0004736927603     -0.0003705654905     -0.0004494450746     -2.650680906e-05     -0.0003109304704     -4.869129944e-11     -9.552533618e-05     -8.476759729e-39 
                   0                   42          -4.21584271         0.7091767466         0.1220831632        0.02302895094       3.74652031e-11      1.123147344e-52     4.151769392e-105         0.7240882065         0.5706753361         0.6418882213        0.09133511338         0.3612569228       0.003128509294         0.1363714185      1.371791965e-06 
                   1                    1          -1.24882898         0.4123213341        0.07098017947        0.01338922606      2.178258467e-11      6.530073264e-53     2.413873696e-105         0.4208349154         0.3210744354         0.3746094832         0.0514825608         0.2217771553       0.001782696033         0.1277281808     -3.225241308e-07 
                   1                    1          14.97827694                   -0                   -0                   -0                   -0                   -0                   -0       0.006599136923       -0.04190611096       0.007191786811     -0.0006455994406        0.01179010184     -4.592320521e-06        0.03706958254     -1.272635295e-07 
                   0                   43          -3.64332729         0.8462819677         0.2075457252          0.101904937      6.346879335e-07      8.449144775e-33      1.099275689e-65          1.919358393          1.640581495          1.527857815         0.4453840736         0.7388889172        0.03610376281         0.2465812858       0.002769693113 
                   1                    2          -0.06605365         0.2969801394        0.07283265005        0.03576082622       2.22726843e-07      2.965002551e-33      3.857615545e-66         0.6766637913         0.6000737455         0.5405082411         0.1545047266         0.3140470783       0.003574599367        -0.2146434879      0.0004280091299 
                   1                    1          15.07484241       -0.02216188563      -0.005435073416      -0.002668620678     -1.662079771e-08     -2.212607468e-34     -2.878712183e-67       -0.04004835148       -0.03815091341       -0.03024249337        -0.0113401145      -0.005413495271      -0.002037715359       0.009640980852     -0.0002282335158 
                   0                   44          -2.14929308         0.4987501257          0.212019577         0.2578606383       0.005066137004      1.644859573e-13      3.612932846e-27          2.848660917           2.85374334          1.716456896          1.371917775         0.2930987725         0.4190448144        -0.2021884913         0.1215524169 
                   1                    3          -0.04043417         0.2884119007         0.1226044186         0.1491128984       0.002929591647      9.511718423e-14      2.089248254e-27           1.66460153          1.545372933         0.9939822278         0.7873547584         0.5477725613        0.08000506644         0.4046613033        0.05997879794 
                   1                    1          15.06248453       -0.01914724985      -0.008139530407      -0.009899390124     -0.0001944913615     -6.314692588e-15     -1.387021764e-28       -0.02008250355        0.01469060131       -0.03081077463       -0.04945012554       -0.00594026002       -0.05481521224       -0.08330791774        -0.1092332369 
                   0                   45          -1.51213407         0.3711846996         0.1335461279         0.1316649948       0.000393965557      3.211399185e-18      2.235610543e-36          1.623341667          1.466741235          1.117033708         0.6497628767         0.2873787668         0.2317991402         0.1011069254         0.2726175599 
                   1                    4          -1.23536614         0.5875204154         0.2113801475          0.208402643      0.0006235785256      5.083082856e-18      3.538580217e-36          2.627370326          2.567845903          1.749065456          1.043350996         0.4659569666         0.3148003966      -0.002395050178       0.008768493361 
                   1                    1          15.07265033       -0.02250860913      -0.008098226024      -0.007984154269     -2.389003842e-05     -1.947389779e-19     -1.355672363e-37       -0.04129429026       -0.01560958722       -0.04646367476       -0.03506278543        -0.0331809359        -0.0472654218       -0.04995574859        -0.2183734106 
                   0                   34           0.04415749                   -0                   -0                   -0                   -0                   -0                   -0        0.03249839607        -0.1690713887        0.02488112704       -0.02281595378         0.4444443717         -0.176142093         0.6801490896       -0.02110311894 
                   1                    1          -1.24882898         0.5572350607         0.2433932895         0.3048959963       0.007813167168      8.180428237e-13      7.761829956e-26          3.220420959          3.252751429          1.975244947          1.613376341         0.5974365324         0.4715980434        0.04445861239         0.1559788652 
                   1                    1          14.97827694                   -0                   -0                   -0                   -0                   -0                   -0        0.09009756613        0.02545684706         0.1026263855       -0.02091500751         0.1660824642       -0.03429744185         0.1223911736      -0.003604318352 
                   0                   35           0.61667291       -0.08758675734       -0.07047927865        -0.1335637919         -0.144136247     -0.0002202186992     -1.875584319e-08         -1.091509427         -1.242416331        -0.3091544635        -0.9422455023       -0.05866517522        -0.5400357564       -0.07219191899         0.3282564856 
                   1                    2          -0.06605365         0.1979674622         0.1593003823         0.3018867889         0.3257831195      0.0004977480425      4.239278621e-08           2.48943592          2.776890439         0.7984424726          2.047286877       -0.09311482665         0.4780956184        -0.1233061051         0.2502206708 
                   1                    1          15.07484241       -0.01477315037       -0.01188765303        -0.0225280401       -0.02431128307     -3.714401648e-05     -3.163524946e-09       -0.05564864912        -0.0158417443        -0.0237483756        -0.1346644353        -0.3444877281        -0.2662070751        -0.4114266553         -0.340494845 
                   0                   36           2.11070712        -0.4603412311        -0.2059273634        -0.2644992284      -0.008489131033     -2.397175657e-12     -7.858874527e-25         -2.862807736         -2.768926316         -1.687914678         -1.386101453        -0.5871927783        -0.2766723341        -0.3219121898       -0.06933776845 
                   1                    3          -0.04043417         0.2825478751         0.1263939335         0.1623441263       0.005210452101       1.47133657e-12      4.823613763e-25          1.719534461          1.790265437           1.02957945         0.8628816036       -0.03090606115         0.3297223004        -0.4688023396         0.1263927438 
                   1                    1          15.06248453       -0.01875794565      -0.008391110832       -0.01077779225     -0.0003459143953     -9.767991148e-14     -3.202327563e-26       -0.03619990657       -0.01408925977       -0.03020321663       -0.05447038722       -0.00485598654       -0.05437575315       -0.09750364508        -0.1080769867 
                   0                   37           2.74786613        -0.6406673947        -0.1721693483        -0.1028812639     -3.604265644e-06     -9.408314058e-29     -1.590865041e-57           -1.7489815         -1.547856291         -1.355526815        -0.4498429407        -0.6784812646        -0.0348643813         0.1693995349      -0.001527963288 
                   1                    4          -1.23536614         0.5837092715          0.156862743        0.09373467124      3.283830722e-06       8.57187394e-29      1.449430207e-57          1.590768904          1.366056345          1.225656415         0.4171369068          0.507485015        0.04353679075         0.4268676016       0.003552564893 
                   1                    1          15.07265033       -0.02236259965      -0.006009599115      -0.003591087257     -1.258074787e-07      -3.28398733e-30     -5.552940312e-59       -0.04722068765       -0.04654399747       -0.03437705459       -0.01502405345      -0.001243548324      -0.003100905953         0.0125682493     -0.0004928871482 
                   0                   38           4.30415769        -0.7091767466        -0.1220831632       -0.02302895094      -3.74652031e-11     -1.123147344e-52    -4.151769392e-105        -0.7255793641        -0.5564410914        -0.6456965899       -0.08849761136        -0.3657503689       -0.00133973102        -0.1861320705     -2.023913655e-06 
                   1                    1          -1.24882898         0.4123213341        0.07098017947        0.01338922606      2.178258467e-11      6.530073264e-53     2.413873696e-105         0.4221985468         0.3545184847         0.3734624741        0.05387421097         0.2021845501      0.0006220802024        0.03968723526      2.179058326e-06 
                   1                    1          14.97827694                   -0                   -0                   -0                   -0                   -0                   -0       0.006607588444       -0.02723263745       0.007253585577     -0.0007050704782        0.01166941339      8.465271222e-06        0.03779794541     -1.061210891e-07 
                   0                   39           4.87667311        -0.7728496029        -0.1296624501       -0.02252390525     -1.825520085e-11     -2.662801966e-54    -2.257892877e-108        -0.7418338672          -0.60441457        -0.6600288005       -0.09012888336        -0.3606514804     -4.947021237e-05       -0.04626940906     -5.660327586e-23 
                   1                    2          -0.06605365         0.2069494506        0.03472030355       0.006031328474      4.888278096e-12      7.130305842e-55      6.04606237e-109         0.1983193286         0.1610123111         0.1754802026        0.02515519326        0.09214144386      1.374799287e-05        0.02888204743     -5.906267022e-23 
                   1                    1          15.07484241       -0.01544342347      -0.002590972575     -0.0004500826625     -3.647835183e-13     -5.320928965e-56    -4.511821668e-110       -0.01251828989        -0.0106769383       -0.01072061071      -0.001984769058      -0.004736045292     -1.288121452e-06       0.000650989294     -1.025377585e-24 
                   0                   40           6.37070732       -0.03472918012      -0.003559614976     -8.619002174e-05     -5.773665879e-21     -5.117812689e-93     -3.09925019e-183      -0.006942040267      -0.005197228334      -0.006624231677     -0.0003473164607      -0.004751066355     -1.234146545e-09      -0.001468628091     -2.602301264e-46 
                   1                    3          -0.04043417       0.006962827053       0.000713664514      1.728017226e-05      1.157557905e-21      1.026066395e-93     6.213663262e-184       0.001392325079       0.001042703168        0.00132844082      6.981501604e-05      0.0009524623132      2.191244481e-10      0.0003163879565      7.231324208e-47 
                   1                    1          15.06248453     -0.0004622520393     -4.737915712e-05     -1.147205698e-06     -7.684859871e-23     -6.811906714e-95    -4.125161364e-185     -9.128192451e-05     -6.884181471e-05     -8.703220714e-05     -4.644208553e-06     -6.193192439e-05     -1.689203319e-11     -1.779117022e-05     -3.572172439e-48 
                   0                   16          -5.77213427         0.4555633194        0.05807076585       0.003721124549      7.903161744e-16      5.470003037e-74     3.544532295e-147         0.1987209019           0.14495542          0.187380205        0.01241916012         0.1278116242      1.278198841e-06        0.05365888294       3.84592236e-20 
                   1                    4           1.24143386      -0.001054482191     -0.0001344150984      -8.61320348e-06     -1.829327112e-18     -1.266129326e-76    -8.204449353e-150      -0.000449822158      1.307602314e-05      -0.000420989584     -3.120168278e-05      -8.37344628e-05      7.902004283e-08      0.0008903023481      5.923992613e-21 
                   1                    1          15.07265033       -0.00739183256     -0.0009422386737     -6.037784087e-05     -1.282343108e-17     -8.875461397e-76    -5.751250839e-149      -0.002908746798       0.001009408596      -0.002699521179     -0.0002290125177      -0.001534040658     -1.342368934e-08      0.0008697055608     -8.648289096e-23 
                   0                    8          -4.21584271         0.9092325462         0.1968793749        0.07160755061      3.252824998e-08      4.514180833e-39      3.503902196e-78          1.593657379           1.30132859          1.326823963         0.3002619443         0.7395108728       0.006870931167         0.2834389647      1.568380591e-06 
                   1                    1           1.22797102                   -0                   -0                   -0                   -0                   -0                   -0      0.0002663384133       -0.01392845397      0.0003802483521     -0.0001749390095       0.005910520715      -0.000348816513        0.03486120142     -1.721186219e-08 
                   1                    1          14.97827694                   -0                   -0                   -0                   -0                   -0                   -0        0.01764987771       -0.07321933821        0.01965540074      -0.002225611287        0.03799973867     -0.0002153097897         0.1515961911       1.47240782e-09 
                   0                    9          -3.64332729         0.8509338396         0.2113719699         0.1068008993      8.552810228e-07      3.429771035e-32      1.769797628e-64          1.981386892          1.695074638           1.57065273         0.4665550838         0.7748729753        0.03217594057         0.2299370025        0.00188128647 
                   1                    2           2.41074635        -0.2729403951        -0.0677983955       -0.03425681092     -2.743347713e-07     -1.100112627e-32     -5.676695902e-65        -0.6378588258        -0.5588963392        -0.5068257817        -0.1488014681        -0.3025495685      -0.003364961534         0.1414550457     -0.0001003438064 
                   1                    1          15.07484241       -0.02228370585      -0.005535272642      -0.002796832977     -2.239754707e-08     -8.981662887e-34     -4.634631734e-66       -0.04129586784       -0.04025951284       -0.03094710569       -0.01191202687       -0.00507433731      -0.001680749391        0.01838622801     -0.0001638847975 
                   0                   10          -2.14929308         0.4961413542         0.2138068084         0.2639676015        0.00593540268      3.492852346e-13      1.613151722e-26          2.890244101          2.886160335          1.736168188          1.400029724         0.2898622976         0.3906714884        -0.1908722492         0.1457216077 
                   1                    3           2.43636583        -0.2733294498        -0.1177884021        -0.1454225065      -0.003269875279     -1.924248809e-13     -8.887021188e-27         -1.624773683         -1.509899167         -0.949389062        -0.7734502142        -0.5891125164       -0.07611830392        -0.3998018758     -0.0003550164463 
                   1                    1          15.06248453        -0.0190470979      -0.008208143055       -0.01013383929     -0.0002278628761       -1.3409223e-14     -6.192964669e-28       -0.03574742088       -0.01293384536       -0.03054879649       -0.05084330543      -0.004947947467       -0.04851247192       -0.08340357546         -0.104700026 
                   0                   11          -1.51213407          0.257349793         0.1873528206         0.3404688425         0.2511699412      7.162664812e-05      7.487407154e-10          2.890488624          3.188929815          1.039178355          2.241795151        0.01623347092         0.6225347629       -0.07581501118         0.1806071276 
                   1                    4           1.24143386      -0.002226227511      -0.001620712412      -0.002945256319      -0.002172768149     -6.196127565e-07     -6.477048846e-12         0.0019420709        -0.0285754792       0.004832932789       -0.03287038322        0.05184070245       -0.03666291707         0.1169690664       -0.07826900889 
                   1                    1          15.07265033       -0.01560566992       -0.01136105937       -0.02064600213       -0.01523092422      -4.34343395e-06     -4.540357434e-11        0.04318458403         0.1071587211       -0.02119062859        -0.1243758466        -0.2029367937        -0.2084769988        -0.4562858148        -0.5468559377 
                   0                    1           0.61667291       -0.08227172386        -0.0715165439        -0.1393106139        -0.1929987949     -0.0008879992182     -2.999454237e-07         -1.133850486          -1.33847704        -0.2845638275         -1.001538244      -0.004728535489        -0.5654364193        0.07814299414         0.3934927132 
                   1                    2           2.41074635        -0.1699674139        -0.1477479922        -0.2878056233        -0.3987215111      -0.001834541973     -6.196654887e-07         -2.307166597         -2.610538733        -0.6608136369         -2.011294958         0.1411794316        -0.4803532098        0.07640301303        -0.3126128063 
                   1                    1          15.07484241       -0.01387667023       -0.01206260728       -0.02349734948       -0.03255286878     -0.0001497777333     -5.059142479e-08       -0.02167936609        0.04820259347       -0.01915554876        -0.1433604242        -0.3980612189        -0.3218847367        -0.4975603022        -0.5106776273 
                   0                    2           2.11070712        -0.4574054014        -0.2076490932        -0.2707389666      -0.009944552465     -5.089766871e-12     -3.508504406e-24         -2.892584087         -2.802168277         -1.711450565         -1.409452769        -0.6062016016        -0.2893593866        -0.2749587113        -0.1095760917 
                   1                    3           2.43636583        -0.2674633626         -0.121420789        -0.1583119793      -0.005814980396     -2.976191707e-12      -2.05156385e-24         -1.673830546         -1.756010254        -0.9799772536        -0.8502006865         0.0505175592        -0.3329156916         0.4340819505       -0.07478795483 