ITEM: TIMESTEP
0
ITEM: NUMBER OF ATOMS
4
ITEM: BOX BOUNDS pp pp pp
0.0000000000000000e+00 4.2600002000000003e+00
0.0000000000000000e+00 2.4767999999999999e+00
0.0000000000000000e+00 3.0000000000000000e+01
ITEM: ATOMS id type c_1[1] c_1[2] c_1[3] c_1[4] c_1[5] c_1[6] c_1[7] c_1[8] c_1[9] c_1[10] c_1[11] c_1[12] c_1[13] c_1[14] c_1[15] c_1[16] c_1[17] c_1[18] c_1[19] c_1[20] 
1 1          13.94787614          12.58804777          6.116479049          1.228488781         0.5894543783         0.3854975342      0.0002095477195      2.357644284e-08          49.32417507          45.82322246          41.18936412          23.43314891          21.45512408          4.281185092          15.36643831          2.559175771          5.306399453         0.8491559263           3.40625962          0.590105467 
2 1          13.95102154          12.59121634          6.136068457          1.272761785         0.6272861053         0.4167134861      0.0002364111768      2.480073419e-08          49.34014911          45.93655839          41.10349241          23.62551707          21.26943008          4.418962088          15.17059013          2.691676362          5.207428539         0.9558690803          3.310406946         0.7152586353 
3 1          13.95297206          12.59312102          6.094228148          1.164492252         0.5392719854          0.345938283      0.0001723735463      2.208002995e-08          49.31610486          45.86100166          41.30031215           23.3740752          21.41135516          4.179922044          15.16176418          2.539904268          4.829073716         0.8624797988          2.894528799          0.567816732 
4 1          13.97041191          12.61113588          6.083870464          1.105482648          0.494239755         0.3111537694      0.0001455100725       2.08557386e-08          49.34632429           45.8224277          41.43626503          23.22428568          21.65646737           4.09999101          15.40014486          2.481894965          5.008685978         0.9432294251          3.071165644         0.7827747799 
