ITEM: TIMESTEP
0
ITEM: NUMBER OF ENTRIES
594
ITEM: BOX BOUNDS pp pp pp
0 4.26
0 2.4768
0 30
ITEM: ENTRIES c_2[1] c_2[2] c_2[3] c_2[4] c_2[5] c_2[6] c_2[7] c_2[8] c_2[9] c_2[10] c_2[11] c_2[12] c_2[13] c_2[14] c_2[15] c_2[16] c_2[17] c_2[18] c_2[19] c_2[20] c_2[21] c_2[22] c_2[23] c_2[24] c_2[25] 
                   0                   94           0.65866934        -0.0125611824      -0.001350187228     -0.0002864141803     -4.112155972e-05     -6.855333364e-12      -2.04305766e-20     -3.268324154e-89    -1.459336776e-175      -0.003066174863      -0.002214059113      -0.003046557289      -0.001396175474      -0.002924757975     -0.0001547055302      -0.002484180013     -2.111452789e-07      -0.002150440066     -5.995701762e-11      -0.001422803394      1.621155172e-30      -0.001358782153      1.743038887e-56 
                   1                    2           -5.0393713          0.135101511        0.01452190796       0.003080521189      0.0004422819985      7.373238177e-11      2.197406011e-19      3.515238596e-88     1.569586344e-174        0.03307970909        0.02373294455        0.03287328643        0.01497782288        0.03158486193       0.001634499747        0.02684778616      1.785178863e-06         0.0232742396      2.794119558e-09        0.01512440558      2.444175899e-30        0.01267495403      1.251992056e-56 
                   1                    1          15.07288275       -0.00283176114     -0.0003043827884     -6.456848728e-05     -9.270340257e-06     -1.545448988e-12     -4.605817437e-21     -7.368027182e-90    -3.289891861e-176     -0.0006920110254     -0.0004983561739     -0.0006877155182      -0.000313013579     -0.0006608958033     -3.402112374e-05     -0.0005620632378     -3.891083695e-08     -0.0004872474774     -6.853444455e-11     -0.0003320428965     -1.205104605e-31     -0.0003094856475     -9.637724122e-58 
                   0                   77          -3.60133086         0.4882387369        0.07421674083        0.03012568444        0.00924315112       3.20767405e-07      4.604394633e-13      3.914232495e-61     9.683407328e-122          0.357845182         0.2871191977         0.3528715386          0.207482734         0.3233667732        0.03788420038         0.2335690392      0.0003252291366         0.1803024756      1.156525916e-05         0.0779418931       1.82488525e-15        0.04384270886     -2.660261413e-26 
                   1                    2           -2.5625713         0.5061796844        0.07694392847        0.03123269067       0.009582802352      3.325544073e-07      4.773588914e-13      4.058065899e-61     1.003923633e-121         0.3709617417         0.2990207125         0.3658795042         0.2164770345         0.3357851844        0.03865764741         0.2454206106      0.0002999466305         0.1924088771       9.78368084e-06        0.07013896862      1.351582286e-14        0.01979966512      8.858571792e-26 
                   1                    1          15.07288275        -0.0175058698      -0.002661051866      -0.001080160728     -0.0003314145065     -1.150116122e-08     -1.650912287e-14     -1.403453664e-62    -3.471999559e-123       -0.01281376548      -0.009960678657        -0.0126599759      -0.006921068138       -0.01175765131      -0.001161705792      -0.009079680775     -1.235572032e-05      -0.007435164529      -3.29464385e-07      -0.004244543591      -7.27351093e-16      -0.002904675348     -5.661202734e-27 
                   0                   78          -2.22812532         0.4709281077        0.09672338692        0.06067166221        0.03061076546      3.827996468e-05      4.168231152e-09      2.979287281e-42      3.202995776e-84         0.7323643622         0.5581983675         0.7122036239         0.4137585315         0.6232161679         0.1257332514          0.402864859        0.01891199799         0.2883219734        0.01669933739         0.1427865373        0.01522843321         0.1503309005        0.01340209879 
                   1                    3           -2.5136748         0.7694463822         0.1580357148        0.09913103555        0.05001473124      6.254538613e-05      6.810445857e-09      4.867838173e-42      5.233354033e-84          1.191983962          1.016072078          1.158922775         0.7787293277          1.009078179          0.209075622         0.6406177939        0.03110963183         0.4549620264        0.02659537588         0.1946882294        0.01961987809         0.1575493959        0.01350867562 
                   1                    1          15.05964739       -0.02424933892      -0.004980544064      -0.003124145015      -0.001576229608     -1.971137043e-06     -2.146332917e-10     -1.534114143e-43     -1.649307588e-85       -0.03506835521        0.04011107568       -0.03390225379        0.04579535302       -0.03178780431      -0.005095034528       -0.02437444676      -0.001000879438       -0.02300025593      -0.001483500072       -0.04036188686      -0.005315256825       -0.06774228739      -0.007914138203 
                   0                   79          -1.34433645         0.2110164235        0.03394648164        0.01508654361       0.005135106584      3.732823522e-07      1.299108043e-12      1.225295204e-57     1.918490386e-114         0.1824150938         0.1467242034          0.179873701         0.1054765327         0.1656097566        0.01859047504         0.1259577269      0.0005693953281         0.1027772227      0.0003505568227        0.03101696788      0.0001911670605      0.0005256034541      8.863887609e-05 
                   1                    4          -3.67992889         0.7330995791         0.1179346659        0.05241269182         0.0178400544       1.29683335e-06      4.513276945e-12      4.256841168e-57     6.665094929e-114         0.6288479289          0.507924402         0.6194040167         0.3692256274         0.5656669611        0.06979084297         0.4098127375       0.001879157205         0.3178018249       0.001113875829         0.1220542098      0.0006901601645        0.05268252131       0.000387989091 
                   1                    1          14.93255221       0.001271558946      0.0002045573121      9.090965136e-05      3.094351902e-05      2.249353422e-09      7.828264861e-15        7.3834778e-60     1.156058648e-116       0.005138317692       0.003512964185       0.005154340249       0.001936900999       0.005266238261      -0.000138325664       0.005430980885      2.327778642e-05       0.005082409961      1.807980651e-05       0.002699165605     -2.607349313e-06       0.001482028245        -1.103067e-05 
                   0                   68            0.0741028                   -0                   -0                   -0                   -0                   -0                   -0                   -0                   -0      8.963957295e-05      -0.009126955611      0.0002584904105       -0.01292077917       0.001918899464      -0.001928133656       0.009404383273      0.0005590193195        0.01392485193      5.328005993e-05         0.0393537934     -0.0001043139966        0.04723564865     -1.250192019e-05 
                   1                    1           -3.7056792         0.8137120297         0.1388539779        0.06751915073        0.02547174737      3.870552671e-06      3.272168883e-11      3.518983774e-53     3.615938187e-106         0.8157735765         0.5537646266         0.8020568797         0.4157019326         0.7298415237        0.09574160043         0.5443697372       0.007204540123         0.4401391753       0.003992840081         0.2373817665      0.0003705391261         0.1978361896      1.953298214e-05 
                   1                    1          14.94109955                   -0                   -0                   -0                   -0                   -0                   -0                   -0                   -0       0.005352501382       0.001488060765       0.005418020064      -0.001051844694       0.005865316782     -0.0005571294126       0.007703501793      4.870014287e-05         0.0092361713       5.38241017e-06        0.01169232115     -2.351629899e-05        0.01203365415     -2.818401218e-06 
                   0                   69           0.65866934        -0.1352246318       -0.03379003187        -0.0265314689       -0.01729988156     -0.0001426523893      -1.55540483e-07     -1.036431794e-32     -1.008683831e-64        -0.3165932346        -0.2470861382        -0.3034380209        -0.1867033393        -0.2501979339       -0.07694402072        -0.1323321378       -0.01988492638       -0.08412303013        -0.0199852415       -0.06272232036      -0.002154068922        -0.2418810938     -0.0008897697021 
                   1                    2           -2.5625713         0.8814606309           0.22026004          0.172945158         0.1127691332      0.0009298784063      1.013889337e-06      6.755971978e-32      6.575097114e-64          2.089829106          1.782788971          2.008254762          1.383991712          1.661853687         0.4898066452          1.114475697         0.1073373734         0.8778776439        0.04960095574         0.4306991332       0.004866295862         0.2223371847       0.003221665654 
                   1                    1          15.07288275       -0.03048469845       -0.00761753919      -0.005981187141      -0.003900041477     -3.215919329e-05     -3.506465249e-08     -2.336505583e-33     -2.273951278e-65        -0.0707383879       -0.05129066633       -0.06803254638       -0.03514860468       -0.05859456376       -0.01438213954       -0.04180041311      -0.005316237831       -0.03310620092        -0.0046581455       -0.03125816763     -0.0004857368766       -0.06344158587     -0.0002005874304 
                   0                   70           2.03187488        -0.4197469942        -0.0914565082       -0.06167437129       -0.03379740896     -7.741077467e-05     -1.762753692e-08     -4.478331445e-39     -7.398892081e-78        -0.7529572691        -0.5826735951        -0.7311647066        -0.4191743689         -0.631084767        -0.1378605033         -0.458198133         -0.022241948        -0.3763864604      -0.006212682662        -0.2531471865     -1.268723837e-06        -0.2580092586     -1.516269215e-11 
                   1                    3           -2.5136748         0.8064873652         0.1757213735         0.1184990051         0.0649371733      0.0001487343866       3.38689401e-08      8.604511236e-39      1.421597549e-77          1.440869877          1.203588624          1.398478593         0.9118697394           1.20075261         0.2710563499         0.8471790622        0.04076400877          0.668124981       0.009423657559         0.2553052245     -8.701759521e-08         0.1560281411     -4.523043382e-12 
                   1                    1          15.05964739       -0.02541669688      -0.005537913025       -0.00373453252       -0.00204651495     -4.687409849e-06     -1.067390044e-09     -2.711738129e-40     -4.480208312e-79        -0.0428864714       -0.07002621967       -0.04155960805       -0.06765936207       -0.03558553112      -0.008289545654       -0.02096434668      -0.001825745679      -0.008268713532     -0.0007506092611        0.06080138847     -1.936507965e-07         0.1220782978     -2.354748768e-12 
                   0                   71           2.91566375        -0.2625011451       -0.03495091636       -0.01129132691      -0.002663579327     -1.449323509e-08     -2.318598947e-15     -6.112201869e-71    -6.504215707e-141        -0.1310070183       -0.09654095206         -0.129898829       -0.06401744477        -0.1231588851      -0.008602812501        -0.1000627118      -5.41906815e-05       -0.08297391671     -3.373459861e-06       -0.04077666266     -7.229451859e-11       -0.03405336226     -1.758210451e-16 
                   1                    4          -3.67992889          0.455230843        0.06061205984         0.0195814775       0.004619193039      2.513424322e-08       4.02092628e-15      1.059981208e-70     1.127964451e-140         0.2264241877         0.1739873164         0.2244437235         0.1185645404         0.2124212171        0.01535235027         0.1714309911      0.0001055654374         0.1412231414      7.681316521e-06        0.06204467522      1.663428503e-10        0.04066201271      3.547335987e-16 
                   1                    1          14.93255221      0.0007895964849      0.0001051314298      3.396401197e-05      8.011975996e-06      4.359526688e-11      6.974284159e-18      1.838534117e-73      1.95645084e-143       0.001482877964      -0.001733977263       0.001498227051      -0.002572467661       0.001603775544     -0.0001310305513       0.002137389429      1.289315075e-06       0.002728476782      1.388880724e-07       0.005712026891      2.754060309e-12       0.008281317433      3.613688952e-18 
                   0                   73           4.91866954        -0.1887393497       -0.02136808196      -0.005051123828     -0.0008260543166     -3.478226564e-10     -2.929565049e-18     -1.022486062e-83    -5.752721844e-166       -0.05460760758       -0.03964563591       -0.05420107442       -0.02563327276       -0.05167654075      -0.003206430971       -0.04258480988     -5.214524836e-06       -0.03597026435     -2.206871041e-08         -0.022714117     -1.409668486e-23       -0.01932938219     -4.460287585e-42 
                   1                    2           -2.5625713         0.1484528626        0.01680705662       0.003972959498       0.000649732704      2.735797761e-10      2.304248259e-18      8.042360172e-84     4.524801147e-166        0.04288186686         0.0312679809        0.04255974059        0.02020226406        0.04056185111       0.002538265262        0.03340859902      3.987973464e-06        0.02824389795      1.138311302e-08        0.01848674942      1.068881834e-23        0.01647563139      6.837405523e-42 
                   1                    1          15.07288275      -0.005134138262     -0.0005812602796     -0.0001374020212     -2.247055042e-05     -9.461564913e-12     -7.969081189e-20     -2.781393928e-85     -1.56487078e-167      -0.001479568669     -0.0009156309714      -0.001468308255     -0.0005433002742      -0.001398294338     -8.889932848e-05      -0.001145133868     -1.418070209e-07     -0.0009617559635     -6.416263094e-10     -0.0006565371478     -3.801243786e-25     -0.0006236191866     -1.493667764e-43 
                   0                   50          -5.60433665         0.2082122074        0.02341254024       0.005457567084      0.0008777496912      3.285970794e-10       2.42452123e-18      3.127237441e-84     5.146603204e-167        0.05946971878        0.04356691841        0.05904569351        0.02820071086        0.05641504252        0.00334198437        0.04690772853      7.517930368e-06        0.03983661452      1.095665532e-07        0.02484650768      1.008701687e-19        0.02095020486      9.723700168e-35 
                   1                    4          -1.20312889         0.0898730137        0.01010582221       0.002355712027      0.0003788731266      1.418361113e-10      1.046523796e-18      1.349845222e-84     2.221487135e-167        0.02572620267        0.01883686634        0.02554758705        0.01221061583         0.0244350019       0.001412111202        0.02035626613      2.661817332e-06        0.01728264559      3.823848612e-08        0.01036277713       7.29322067e-20       0.008091971907      1.367141525e-34 
                   1                    1          14.93255221      0.0003134066225      3.524118615e-05      8.214876965e-06      1.321212476e-06      4.946131742e-13      3.649454655e-21      4.707202024e-87     7.746805758e-170      0.0002144270008     -0.0001352609511      0.0002148830582      -0.000241376936      0.0002182008437     -4.070903737e-06      0.0002392327695      4.173576881e-08      0.0002719153773      9.938401798e-10      0.0006071446695     -2.274102828e-21      0.0009823284847     -7.673310835e-36 
                   0                   42           -4.1858974         0.7091767466         0.1220831632        0.06014235769        0.02302895094      3.894688774e-06       3.74652031e-11      1.123147344e-52     4.151769392e-105         0.7196789285         0.5774686592         0.7065407203         0.4201490573         0.6364018524        0.09261990141         0.4527039701       0.006504037557         0.3515707637       0.003504930532         0.1665272579      0.0001396995816         0.1247341399      2.448105944e-06 
                   1                    1           -1.2288792         0.4123213341        0.07098017947        0.03496727337        0.01338922606       2.26440486e-06      2.178258467e-11      6.530073264e-53     2.413873696e-105         0.4178251028         0.3131172526          0.410420757         0.2178900218         0.3717492847          0.051362723         0.2747606242       0.004249856146         0.2197474713       0.001970480116         0.1391894756      1.794719824e-05         0.1399008029     -5.573334947e-07 
                   1                    1          14.94109955                   -0                   -0                   -0                   -0                   -0                   -0                   -0                   -0       0.005601130713       -0.02805956863        0.00562681943       -0.03072789121       0.005825251052     -0.0002416521191       0.007256770084      2.621595954e-05       0.009581359186     -9.350338151e-06        0.02916979577     -1.038129553e-05        0.04927491182     -3.249614505e-07 
                   0                   43          -3.60133086         0.8431105487         0.2065437114         0.1588578882         0.1011647573      0.0007004840575      6.166867943e-07      7.471267668e-33      8.640870221e-66          1.904765159           1.62855751          1.830651535          1.274968095          1.507652172         0.4530352664         0.9560864421        0.09075130251         0.7134624874        0.04238293907         0.3315351656        0.00660430509         0.2842451674       0.003830999395 
                   1                    2           -0.0857713         0.3059366546        0.07494781343        0.05764422108         0.0367093111      0.0002541822653      2.237750377e-07      2.711073465e-33      3.135483161e-66         0.6921488774         0.6209597275         0.6659360534         0.4937096663         0.5513492006         0.1602085095         0.4002538785        0.02901805811         0.3325570813       0.005802025278        0.01768488236         0.0013968322        -0.2472783074       0.000209773664 
                   1                    1          15.07288275       -0.03022984941      -0.007405654339      -0.005695872319      -0.003627276856     -2.511595615e-05     -2.211139329e-08     -2.678833717e-34     -3.098196387e-67       -0.06742011033       -0.05492241972       -0.06515884667        -0.0395729968        -0.0575095338       -0.01177796487       -0.04788562399      -0.004668892262       -0.04409537979      -0.003226179085       -0.02262162988     -0.0005898443281     -0.0005418983239     -0.0005999171166 
                   0                   44          -2.22812532          0.532285242         0.2158415793          0.247281492         0.2486157389        0.05186519322       0.002997206509      1.131277776e-14      1.687951131e-29          2.848805043          2.826572678           2.58972743          2.496492005          1.762840541          1.311921953         0.6986005423         0.5371230042         0.3216370381         0.3854127307         -0.110055831         0.1398289514        -0.1895412545         0.1212903401 
                   1                    3           -0.0368748         0.2970503796         0.1204538808          0.137999432           0.13874403        0.02894420908       0.001672639519      6.313278411e-15      9.419884011e-30          1.606208571          1.466499806           1.47542701          1.225855313         0.9778579984         0.7257136989         0.6335551562         0.2120528877         0.5655065367        0.06472722457         0.3613572325        0.03547718893         0.4211752921        0.01370853348 
                   1                    1          15.05964739       -0.02740878072       -0.01111425614       -0.01273318074       -0.01280188465      -0.002670676539      -0.000154334123     -5.825249704e-16     -8.691708646e-31        -0.1037989698       -0.05320984909        -0.0832503191       -0.01931396055       -0.09980547707       -0.04738877794         -0.117827142       -0.05728707715        -0.1287745367       -0.06494588093       -0.09275725523       -0.07825361306         -0.114282605        -0.1259818666 
                   0                   45          -1.34433645         0.3358066169         0.1251600651         0.1364338787         0.1295522441        0.01759470061      0.0005991994367      3.324233549e-17      2.542135851e-34          1.551062615          1.591067212          1.411562386          1.366766842          1.057840101         0.6451236043         0.5396289058         0.2809683672          0.340315229         0.2335123175         0.0306809837         0.2163658055       -0.03000410626         0.2564477473 
                   1                    4          -1.20312889         0.5802706773         0.2162754159         0.2357564598         0.2238650599        0.03040347726       0.001035410994      5.744244324e-17      4.392786854e-34          2.722466084          2.588983563          2.492333579          2.238937304          1.776619697          1.143556878         0.7730504776         0.4816315202         0.3978368466         0.3836637318        0.05631035982         0.1983951873        0.06540614958         0.1197063042 
                   1                    1          14.93255221       0.002023529262      0.0007541991175      0.0008221337279      0.0007806658464      0.0001060234961      3.610701913e-06      2.003142143e-19      1.531859715e-36         0.1390015876       -0.05744300444         0.1557670685       -0.07566003132         0.0770176918       -0.00625258047        0.08168278724       -0.01510586153        0.07624200691       -0.03693870347        0.06332777998        -0.1804975134         0.0998465414        -0.3117934491 
                   0                   34            0.0741028                   -0                   -0                   -0                   -0                   -0                   -0                   -0                   -0        0.03345579482        -0.1536855968         0.0526350779        -0.2309033639        0.02569094494       -0.02061839988         0.2708396706       -0.09260598802         0.4252188006        -0.1836193472         0.7188720018        -0.0928493559         0.6281708578       -0.01346847511 
                   1                    1           -1.2288792         0.5572350607         0.2433932895         0.2899488464         0.3048959963        0.08916197783       0.007813167168      8.180428237e-13      7.761829956e-26          3.225159333          3.258371125          2.947764443          2.856100815          1.971199943          1.623263146         0.9247097927         0.6822282931         0.6061307817         0.4706550063          0.113173948         0.1827251748        0.04106129721         0.1557161533 
                   1                    1          14.94109955                   -0                   -0                   -0                   -0                   -0                   -0                   -0                   -0        0.08152660945        0.01031782696        0.08956075759       -0.03263500576        0.09297223948       -0.02101558955         0.1404133685       -0.02883149301         0.1813332025       -0.04518655857         0.1959541058       -0.02289223665         0.1527724372      -0.003178328869 
                   0                   35           0.65866934       -0.09172623065       -0.07148155783        -0.1026155051        -0.1337656095        -0.1982368988        -0.1287450828       -0.00011871137     -5.378769279e-09         -1.122534129         -1.240672892        -0.9181309764         -1.162704476        -0.3485018948        -0.9167249131       -0.04891547912         -0.596522347       -0.08356298546        -0.5134676229        -0.7225447564       -0.05760731373        -0.1590286166          0.308548169 
                   1                    2           -0.0857713         0.2092739505          0.163085607         0.2341178962          0.305187048         0.4522786848         0.2937326859      0.0002708407094      1.227169467e-08          2.539110665          2.834414017           2.12463737          2.730916033         0.8417269772          2.058708685        0.04412133528         0.8732313539       -0.08534262058         0.4605316542        -0.4422059002         0.1905365034        -0.1812345345         0.2630465744 
                   1                    1          15.07288275       -0.02067852908       -0.01611462133       -0.02313337954       -0.03015578017       -0.04469002431       -0.02902396535     -2.676199055e-05     -1.212576121e-09        -0.1477397338        -0.0576558499       -0.06789446607        0.04589940646        -0.1255022429        -0.1507358492        -0.3715127696         -0.302628001         -0.488935101        -0.2898246442        -0.5726677871        -0.3052612602        -0.5477183541        -0.3969002928 
                   0                   36           2.03187488        -0.4285457931        -0.1993773303        -0.2447162437        -0.2663281004        -0.1008977906       -0.01216696555     -1.628828102e-11     -3.733743976e-23          -2.83280509         -2.728421717         -2.562790812         -2.379882233         -1.618249122         -1.426859324        -0.8330069762        -0.5297380855        -0.6030391683        -0.2654991903        -0.2514131528       -0.05335077783        -0.3088121657      -0.008385897608 
                   1                    3           -0.0368748         0.2812348562         0.1308421544          0.160595994         0.1747788596         0.0662145705       0.007984618828      1.068924826e-11      2.450284117e-23          1.812568874          1.936218508          1.614743559          1.790094701          1.036855006         0.9588758565         0.1554226214         0.4248542341        -0.1185841792          0.383664335          -0.30537211         0.1554346712         -0.443260966         0.1446696602 
                   1                    1          15.05964739       -0.02594948546       -0.01207278012       -0.01481816111       -0.01612681137      -0.006109605535     -0.0007367392255     -9.862948565e-13     -2.260872386e-24        -0.1352100094       -0.07371002471        -0.1113335474       -0.03506893179       -0.09097604217       -0.07896719486       -0.08061140381       -0.05704560208       -0.08646575398       -0.05301853522        -0.2305601035       -0.07865534755        -0.3592287499        -0.1129899303 
                   0                   37           2.91566375        -0.6665313467        -0.1730319258        -0.1412031159       -0.09622226728       -0.00109976728     -1.788924275e-06     -2.890944619e-30     -1.511680155e-60         -1.705583969         -1.509444524         -1.635851879         -1.204870353         -1.334694409        -0.4230571052        -0.8748955216       -0.08765236308        -0.6643333235       -0.03072941082        -0.1250255405      -0.002175911698         0.1248161554      -0.001014824225 
                   1                    4          -1.20312889         0.5749309902         0.1492524199         0.1217977934        0.08299859216      0.0009486279896      1.543075221e-06      2.493646639e-30      1.303932325e-60          1.460160991          1.228366193          1.398938035         0.9620396993           1.13170058         0.3746621485         0.6620273387        0.07534801435           0.46647644        0.04058789466         0.3672144937       0.002905320461         0.4924364061       0.001294380097 
                   1                    1          14.93255221       0.002004908619      0.0005204754453       0.000424735229      0.0002894340289      3.308070821e-06      5.381036791e-09      8.695884768e-33      4.547093828e-63        0.03444268894      -0.008654963801         0.0351197128       -0.03039887019        0.03902104977      -0.005048771168        0.05660791352     -0.0006018232885        0.07606211199      0.0001117656499          0.135432085     -1.686388152e-05         0.1743905767     -5.532684528e-05 
                   0                   38             4.334103        -0.7091767466        -0.1220831632       -0.06014235769       -0.02302895094     -3.894688774e-06      -3.74652031e-11     -1.123147344e-52    -4.151769392e-105        -0.7231844855        -0.5639372205        -0.7101132839        -0.4027327038        -0.6398563315       -0.09258086225        -0.4588548434      -0.005572082644        -0.3594565468      -0.002499856354        -0.2146801349     -0.0001505741543        -0.1967793854     -4.493767671e-06 
                   1                    1           -1.2288792         0.4123213341        0.07098017947        0.03496727337        0.01338922606       2.26440486e-06      2.178258467e-11      6.530073264e-53     2.413873696e-105         0.4190975406         0.3531853907         0.4113606832          0.264978996         0.3688865432        0.05565722754         0.2570194955       0.002524043504         0.1969670826        0.00131901889        0.06661849913      0.0001407017071        0.01363840272      7.494627441e-06 