ITEM: TIMESTEP
0
ITEM: NUMBER OF ATOMS
4
ITEM: BOX BOUNDS pp pp pp
0.0000000000000000e+00 4.2600002000000003e+00
0.0000000000000000e+00 2.4767999999999999e+00
0.0000000000000000e+00 3.0000000000000000e+01
ITEM: ATOMS id type c_1[1] c_1[2] c_1[3] c_1[4] c_1[5] c_1[6] c_1[7] c_1[8] c_1[9] c_1[10] c_1[11] c_1[12] c_1[13] c_1[14] c_1[15] c_1[16] c_1[17] c_1[18] c_1[19] c_1[20] 
1 1          13.95793193          12.59867617          6.103971638          1.173962605         0.5450826209         0.3492373776      0.0001158393528      6.804864238e-09          49.35478333           45.8502232          41.31030394          23.41292012          21.43709696          4.189094705          15.21175816          2.522932147          4.915677727         0.9048303216          3.066059596         0.7110096072 
2 1          13.95637138          12.59710301          6.095041005          1.154752589         0.5296596585         0.3366730689      9.278422582e-05      4.218203086e-09          49.35878023          45.83542352          41.34603455          23.33804945          21.50138774          4.126246565          15.28001807          2.458705022          4.967127563         0.8539103625          3.103691227         0.6693977277 
3 1           13.9587901           12.5995261          6.114993121          1.201620857         0.5663722247         0.3656076532      0.0001139657915      4.949974993e-09          49.34739379           45.8720534          41.25826499          23.45773559           21.4585876          4.246232664          15.28024687          2.541683835          5.035410538         0.9539947285          3.240110237          0.828684744 
4 1          13.95844832          12.59891804          6.120144692          1.217789312          0.580583339         0.3776148382      0.0001370209179      7.536636146e-09          49.33539972          45.90090392           41.2221231          23.51021249          21.40176078          4.286570623           15.2251406          2.581180785          5.009667724          0.982212559          3.213059942         0.8641258893 
