ITEM: TIMESTEP
0
ITEM: NUMBER OF ENTRIES
576
ITEM: BOX BOUNDS pp pp pp
0 4.26
0 2.4768
0 30
ITEM: ENTRIES c_2[1] c_2[2] c_2[3] c_2[4] c_2[5] c_2[6] c_2[7] c_2[8] c_2[9] c_2[10] c_2[11] c_2[12] c_2[13] c_2[14] c_2[15] c_2[16] c_2[17] c_2[18] c_2[19] c_2[20] c_2[21] c_2[22] c_2[23] 
                   0                   98           4.95267529       -0.01770133012       -0.00192448603     -6.182308028e-05     -1.271709024e-11     -1.137897811e-16     -4.794815096e-20     -4.247782892e-88    -1.531416281e-173      -0.004479336481       -0.00367888447      -0.004369462035     -0.0008098076183      -0.003583125191     -3.241090837e-07      -0.003074478233     -8.061764332e-11       -0.00202122882      9.578928111e-31      -0.001889694046      3.601200502e-57 
                   1                    2          -5.00622031         0.1580896772        0.01718748666      0.0005521387793      1.135756848e-10      1.016250736e-15      4.282224926e-19      3.793673253e-87     1.367700076e-172        0.03997564303         0.0327278331        0.03899882546       0.007310227139        0.03190667679       2.52062565e-06        0.02730795555       3.60066437e-09        0.01700438717      1.287771167e-30        0.01407446515      2.491829672e-57 
                   1                    1          15.02094512      -0.002918645208     -0.0003173146816     -1.019356375e-05     -2.096829687e-12     -1.876197987e-17     -7.905826291e-21     -7.003864174e-89    -2.525042334e-174     -0.0007070113875     -0.0005799370387     -0.0006891405178     -0.0001285018916     -0.0005611361578     -5.273722676e-08     -0.0004807239109     -9.389279656e-11     -0.0003338227072     -8.496947543e-32     -0.0003115678029     -2.261017651e-58 
                   0                   68           4.25367693                   -0                   -0                   -0                   -0                   -0                   -0                   -0                   -0      -0.001611002598      -0.005771332937      -0.001391153604      -0.005504505131       0.004816201276      0.0004988860675       0.007810877695      7.439409024e-05        0.02862082921     -3.817825148e-05        0.04114825438     -2.316121511e-06 
                   1                    1          -3.71710158         0.8137120297         0.1388539779        0.02547174737      3.870552671e-06      3.640260861e-09      3.272168883e-11      3.518983774e-53     3.615938187e-106         0.8171868556         0.5980396868         0.7690546801         0.2268544689         0.5304443528       0.005422654371         0.4223606459       0.002747473554         0.2218304346      0.0001452772161         0.1863320671      3.737473618e-06 
                   1                    1           14.9056923                   -0                   -0                   -0                   -0                   -0                   -0                   -0                   -0       0.008121139996       0.005592878406       0.008339029161     -0.0006126314932       0.009729665377      1.440366885e-05        0.01046813219      8.999826943e-06       0.008932485167     -6.294937724e-06       0.008367887441     -3.818886436e-07 
                   0                   69           0.69267509         0.5111159156        0.08067609481        0.01144511339      6.514654971e-07      3.011878437e-10      1.690632367e-12      1.559379832e-58     1.340036172e-116         0.4198636857         0.3660605835         0.3987259666         0.1185368733         0.2739502961       0.000423200742         0.2114260807      1.418552581e-05        0.08674609584      2.654679463e-14        0.04220366979     -3.063895325e-25 
                   1                    2          -2.52942031         0.5405279431        0.08531857891        0.01210371935      6.889539033e-07      3.185196169e-10       1.78791935e-12      1.649113924e-58     1.417148192e-116          0.443174317         0.3868918908         0.4210204436         0.1243993431         0.2931111009      0.0004245727889         0.2298005448      1.023091913e-05        0.08184755699      6.395470283e-14         0.0264376046      3.574690872e-24 
                   1                    1          15.02094512       -0.01654240949      -0.002611104361     -0.0003704242941     -2.108486293e-08     -9.748028755e-12     -5.471778915e-14     -5.046976417e-60    -4.337064531e-118       -0.01111001167       -0.01044229922       -0.01034433443      -0.004422821071      -0.005640531288     -1.720828262e-05      -0.002859715434     -2.933130851e-07       0.004004488432     -3.095209779e-15        0.00416783696     -2.330465654e-25 
                   0                   70           2.18999222         0.4404843496        0.09538617422        0.03469926037      7.473240229e-05      4.861504035e-07      1.578641586e-08      2.205445155e-39      1.726177179e-78         0.7787739848            0.2961046         0.7052137845         0.2620494623         0.4123014156        0.02304220622          0.295649149        0.01889134231         0.1377244982        0.01472702616         0.1286664761        0.01101983151 
                   1                    3          -2.48697224            0.7947583         0.1721036258        0.06260727585       0.000134838382       8.77152772e-07      2.848315733e-08       3.97924658e-39      3.114511653e-78          1.404012542          1.440496638          1.271432168         0.5249882439         0.7399677934        0.04146969814         0.5236538402        0.03445101341         0.2231155507         0.0294191132         0.1960088157        0.02487569835 
                   1                    1          15.05704688       -0.03230596389      -0.006995804285       -0.00254491006     -5.481017186e-06     -3.565519955e-08     -1.157805904e-09     -1.617515619e-40     -1.266011327e-79       -0.04905042155       -0.03851788981       -0.04479970352       -0.01730754011       -0.02808372719      -0.001719688785       -0.02233198943      -0.002219341916       -0.01238297182      -0.007530243012       -0.01067052095       -0.01211827608 
                   0                   71           2.85391376         0.1945966206        0.03022629014        0.00405836867      1.873633762e-07      7.449069754e-11       3.78355004e-13      4.788778691e-60     3.448182431e-119         0.1530650082         0.1338080502         0.1457286886        0.04191464372         0.1043737454      0.0001234151271        0.08441235561      1.461662031e-06        0.02568579103      8.538541241e-14      -0.002736813601      1.778415998e-23 
                   1                    4          -3.80353011         0.7006703281         0.1088336713        0.01461268186      6.746260951e-07      2.682134013e-10       1.36231618e-12      1.724261771e-59      1.24156273e-118         0.5513535865         0.4790861361         0.5244500167         0.1519146595         0.3658430027      0.0004947098175         0.2871316326      1.746751105e-05         0.1221148869      1.334321721e-13        0.05906884066      1.060788534e-23 
                   1                    1          15.00931541        -0.0144057991      -0.002237622946     -0.0003004370969     -1.387032903e-08     -5.514474099e-12     -2.800925402e-14     -3.545086424e-61    -2.552656013e-120      -0.008975819444      -0.007956498924      -0.008410168117      -0.002824196316      -0.005444021654     -1.290532718e-05       -0.00428707326     -1.896035958e-07      -0.001461338281     -6.292509131e-15      0.0002472315362     -1.307796739e-24 
                   0                   73           4.95267529        -0.1622821573       -0.04092593858       -0.02138180916     -0.0001909763507     -3.530981229e-06     -2.296393425e-07     -3.338099473e-32     -8.609448975e-64         -0.396129938        -0.3431553365        -0.3476906914        -0.1571834281        -0.1714567202       -0.02086941137        -0.1132959011       -0.01763258207        -0.1299779705      -0.001473841282        -0.3040741384      -0.001103524102 
                   1                    2          -2.52942031         0.8743102281         0.2204923036         0.1151964872       0.001028902866      1.902349005e-05      1.237203333e-06      1.798432163e-31      4.638420775e-63          2.123758248          1.932601911          1.855786231         0.8698271856          1.079713759        0.09776175984         0.8314946076        0.04122632481         0.3342919814        0.00477911454         0.1263214032       0.002976184071 
                   1                    1          15.02094512       -0.02675753955      -0.006747984119      -0.003525492968     -3.148871904e-05     -5.821981386e-07     -3.786358212e-08     -5.503952509e-33     -1.419550216e-64       -0.04791040211       -0.04012595446       -0.04039295331       -0.01860618372       -0.02252345439       -0.00456769113        -0.0173632999      -0.003199445778       -0.02971228529     -0.0002442161147        -0.0540097805     -0.0001819523767 
                   0                   74           6.44999242        -0.4606416931        -0.0974856494       -0.03341098129     -5.700803896e-05     -3.126760997e-07     -9.064719874e-09     -1.319550759e-40     -6.123973047e-81        -0.7751639963        -0.6456874906        -0.7033033657        -0.2530701563        -0.4568636545       -0.01718931222        -0.3646428938      -0.003424045074        -0.1933745806     -4.271219383e-08        -0.1913488833     -2.706643244e-14 
                   1                    3          -2.48697224         0.7809378191         0.1652699519        0.05664250383      9.664720821e-05      5.300879079e-07      1.536765489e-08      2.237068654e-40      1.038213047e-80          1.312566664          1.167752992          1.189975763         0.4553543885         0.7673262312        0.02925176314         0.6049176516       0.005459197862         0.2816806934      6.508191918e-09          0.205915271     -8.522135914e-15 
                   1                    1          15.05704688       -0.03174417806      -0.006718023703       -0.00230244929      -3.92859215e-06     -2.154743249e-08     -6.246765893e-10     -9.093413577e-42     -4.220210496e-82       -0.04728125507       -0.08108331421       -0.04281403659       -0.03134932408       -0.02620203696      -0.001689934753       -0.01593230831     -0.0005261506545        0.03452077085      -9.34907614e-09        0.08093872712     -4.370992907e-15 
                   0                   75           7.11391396        -0.2306783187       -0.02961547268      -0.001953303174     -6.178211833e-09     -3.642133184e-13     -5.243979979e-16     -9.701092242e-74    -2.138676836e-146        -0.1023525404       -0.08629397903       -0.09919101757       -0.02175154715       -0.07771505396      -2.85838914e-05       -0.06441226518     -5.017136566e-07        -0.0324704876     -2.347375587e-19       -0.02549679441     -2.406425046e-34 
                   1                    4          -3.80353011         0.4064786573        0.05218547472       0.003441918841      1.088663757e-08      6.417809072e-13       9.24042603e-16      1.709431112e-73     3.768566087e-146         0.1803326857         0.1480807676         0.1747717676        0.03783066499         0.1368452208      4.911025147e-05         0.1132380094      9.262402565e-07        0.05712780475      4.147173454e-19        0.04525215872      1.268614721e-34 
                   1                    1          15.00931541      -0.008357211147      -0.001072934638     -7.076593566e-05      -2.23829535e-10     -1.319503117e-14     -1.899833855e-17     -3.514594553e-75    -7.748181103e-148      -0.003176063498      -0.006448166127      -0.003042296496      -0.001807539314      -0.002043578137     -6.228624948e-07      -0.001306962824     -1.003670379e-08       0.001648425396     -2.203042984e-20       0.003924544846     -1.992938315e-35 
                   0                   80           9.21267549        -0.1571330991       -0.01740930801     -0.0006102282216     -1.762868402e-10     -1.987746309e-15     -9.722234245e-19     -1.425054868e-85    -1.607817821e-169       -0.04266690829       -0.03518315388       -0.04158556637      -0.008088858085       -0.03374181364     -2.920408047e-06       -0.02867542578     -6.633691236e-09       -0.01707480847     -1.807972078e-24        -0.0133145844     -4.457143562e-43 
                   1                    2          -2.52942031         0.1193286253        0.01322082237       0.000463414107      1.338741896e-10      1.509516683e-15      7.383172953e-19      1.082202537e-85     1.220994758e-169         0.0324188184        0.02677254456        0.03159471909       0.006139771199        0.02564523167      2.265422901e-06        0.02181224247       3.48948804e-09        0.01323614061      6.515501441e-25        0.01072656991      2.267736752e-43 
                   1                    1          15.02094512      -0.003651953628     -0.0004046123059     -1.418240448e-05     -4.097108563e-12     -4.619750637e-17      -2.25955886e-20     -3.311991126e-87    -3.736753211e-171     -0.0009329426243     -0.0008163318463     -0.0009050761921     -0.0002207774761     -0.0006978734431     -6.888641962e-08     -0.0005573135728     -1.635183064e-10     -0.0001900923928     -1.493174445e-26     -2.870765891e-05     -6.164617038e-45 
                   0                   42          -0.00632327         0.7091767466         0.1220831632        0.02302895094      3.894688774e-06      3.958702083e-09       3.74652031e-11      1.123147344e-52     4.151769392e-105          0.728967026            0.6270307         0.6849991761         0.2101656376         0.4672124514       0.005044970089         0.3682947112       0.002700745554         0.1773163956      0.0002061541588         0.1383484885      8.146114518e-06 
                   1                    1          -1.24030158         0.4123213341        0.07098017947        0.01338922606       2.26440486e-06      2.301622737e-09      2.178258467e-11      6.530073264e-53     2.413873696e-105         0.4214540375         0.3618242599         0.3963891053         0.1159772019           0.27874532       0.003537208062         0.2268697846       0.001657097056         0.1388757319      5.585668759e-05         0.1184555951      -2.72789049e-07 
                   1                    1           14.9056923                   -0                   -0                   -0                   -0                   -0                   -0                   -0                   -0       0.008897668256       -0.01333753014        0.00934483613      -0.009596866307        0.01348271513      1.752880362e-05        0.01739278252      8.467361258e-06        0.03866070783     -9.441629727e-06        0.06251567506     -7.389208034e-07 
                   0                   44          -2.07000798        0.03901144167       0.004006635324      9.798850111e-05        6.6704457e-12       2.78567356e-17      7.197688152e-21      8.995840529e-93     8.065400099e-183       0.007846782912       0.006529000924       0.007673057612       0.001451935556       0.006360152129      2.874548095e-07       0.005452203955      6.992135547e-10        0.00292999661      2.263268498e-26       0.001863881206      4.212853109e-46 
                   1                    3          -0.01017224       0.007690835395      0.0007898803901      1.931775398e-05      1.315032147e-12      5.491762389e-18      1.418974343e-21      1.773467624e-93      1.59003774e-183        0.00154666593       0.001287565884       0.001512413758       0.000286974075       0.001253224371      5.942628759e-08       0.001072771633      1.175741638e-10      0.0005704824575      3.120029665e-27      0.0003667813609      1.164542131e-46 
                   1                    1          15.05704688     -0.0009337214699     -9.589703081e-05     -2.345311103e-06      -1.59654145e-13     -6.667385514e-19     -1.722734581e-22     -2.153114338e-94    -1.930417568e-184     -0.0001865111203     -0.0001556793302     -0.0001823273305     -3.501522916e-05     -0.0001507045328     -6.907545545e-09     -0.0001288119995     -1.673527704e-11      -6.75503244e-05     -5.420050884e-28     -4.118807907e-05     -1.008327744e-47 
                   0                   45          -1.40608644         0.1884616407        0.02098054201      0.0007516615928      2.362858716e-10       2.82215978e-15      1.432657044e-18      4.252991859e-85     1.143976429e-168        0.05151092137        0.04233516654        0.05018959533        0.00964403512        0.04077721665      4.213685971e-06        0.03484149714      1.822233549e-08        0.02170504326      1.671586515e-19        0.01777640281      4.275416146e-33 
                   1                    4          -1.32673011        0.08535166979       0.009501797222      0.0003404171365      1.070106024e-10      1.278117121e-15      6.488305549e-19      1.926121175e-85     5.180910985e-169        0.02332394015         0.0191346871        0.02273063835       0.004357151031        0.01848438167      1.730279281e-06        0.01580955701      5.973730124e-09       0.009693041006      4.465804505e-20       0.007547155736      1.388392823e-33 
                   1                    1          15.00931541      -0.003450494313     -0.0003841271924     -1.376197322e-05     -4.326095504e-12     -5.167017669e-17     -2.623013874e-20     -7.786690262e-87    -2.094476176e-170     -0.0008677587123     -0.0007867780442     -0.0008406174216     -0.0002220632581     -0.0006430204978      -7.99513413e-08     -0.0005103045406     -1.078418896e-10      -0.000107400076      -5.84615864e-22      0.0001073747646     -3.458467474e-35 
                   0                   34           4.25367693                   -0                   -0                   -0                   -0                   -0                   -0                   -0                   -0       0.001910701557       -0.08409173837       0.007602748213        -0.1002503253         0.1925760224       -0.07422565245         0.3314153991        -0.1473672045         0.4443937457       -0.04378975571         0.5157907635      -0.004292483908 
                   1                    1          -1.24030158         0.5572350607         0.2433932895         0.3048959963        0.08916197783        0.02165100651       0.007813167168      8.180428237e-13      7.761829956e-26          3.304562907           3.37860374          2.469696605          2.199830941          0.880138325         0.6498555968         0.5420061256         0.4336407046        0.07611312245          0.167823825        0.02934942176         0.1520400384 
                   1                    1           14.9056923                   -0                   -0                   -0                   -0                   -0                   -0                   -0                   -0          0.115005883        0.07083804455         0.1330400482        -0.0302463399         0.1648335008       -0.02550477841         0.1837280081       -0.03339095298         0.1252499542      -0.009456698431        0.09840426196     -0.0008391841337 
                   0                   35           0.69267509         0.8315284032         0.2130184358         0.1151463823       0.001176498367      2.401499996e-05      1.668080236e-06       9.01675849e-31      1.200051119e-61          2.090593114          1.895455255           1.82357569         0.8583533985          1.043589279         0.1015230729         0.7980091643        0.04880220146         0.3728536667        0.00500644368         0.2562905067       0.003092520622 
                   1                    2          -0.05262031         0.3010217032        0.07711483109        0.04168415655      0.0004259043238      8.693673198e-06      6.038619387e-07       3.26415789e-31      4.344306585e-62         0.7563706233         0.6980353151         0.6593895522          0.309394183         0.4138862077        0.03305589442         0.3399698333       0.005375246705         0.0946744589       0.001017659393        -0.1443606089      0.0006070805456 
                   1                    1          15.02094512       -0.02691264922      -0.006894401222      -0.003726744853     -3.807769853e-05      -7.77252187e-07     -5.398788312e-08     -2.918299091e-32     -3.883998993e-63       -0.04892297942       -0.05385535405       -0.03981484081       -0.03440002879      -0.008951416321       -0.00482081465       0.008151317314      -0.003520898883        0.06355266029     -0.0003668221425        0.06804261196      -0.000361306414 
                   0                   36           2.18999222           0.45871902         0.2062269433         0.2662415828          0.087908586          0.023354037       0.008947349066      3.094533531e-12      1.307097858e-24          2.938423246          2.968340112          2.111595229          1.978165016         0.6256719263         0.6122311342         0.2501602265         0.4612230873        -0.2535622148          0.142990556        -0.2848025725        0.06703047531 
                   1                    3          -0.01017224         0.2771118769         0.1245815692         0.1608363759        0.05310552256        0.01410815934        0.00540508805      1.869405797e-12      7.896170098e-25          1.783556605          1.674755433          1.304363626          1.039784133         0.6485431399         0.2661008009         0.6250013203        0.08343801315         0.5467924302        0.03508617135         0.4936824065        0.07736241155 
                   1                    1          15.05704688       -0.03364332946       -0.01512507809       -0.01952666642      -0.006447383676        -0.0017128297     -0.0006562156775     -2.269590023e-13     -9.586505459e-26        -0.1546274084        -0.1274043247        -0.1006310181        -0.0783785953       -0.09494152035       -0.08712294068       -0.09281330166        -0.1037492777        -0.1450866088        -0.1183959854        -0.2059476056        -0.1566420456 
                   0                   37           2.85391376         0.3340358159         0.1198252007         0.1176432469        0.01292547862       0.001521457466      0.0003390632263      2.343473121e-18      1.327446607e-36          1.523717283           2.02510281          1.188520635         0.8912351594         0.4826748945         0.2231039179          0.289415807         0.1707896426        0.06315131892        0.07407553592        0.02069486604        0.02122840715 
                   1                    4          -1.32673011         0.6116821415         0.2194223849         0.2154268187         0.0236689722       0.002786073578      0.0006208882716        4.2913382e-18      2.430803358e-36          2.773566194          2.384253832          2.170648999          1.565684697         0.8798579227         0.4098926805         0.4991410683         0.3254752872        0.06948391956         0.2176756714        0.05991351084         0.1912341577 
                   1                    1          15.00931541       -0.02472834751      -0.008870543401      -0.008709015476     -0.0009568606473     -0.0001126320207     -2.510052183e-05     -1.734850425e-19     -9.826958494e-38       -0.03013896199       -0.07637803608       -0.01741342017       -0.04866757308       -0.01449263498       -0.03208479189       -0.01581237437        -0.0489039121       -0.01221997262        -0.1713150035      -0.007822062342        -0.2793837893 
                   0                   38           8.51367713        -0.7091767466        -0.1220831632       -0.02302895094     -3.894688774e-06     -3.958702083e-09      -3.74652031e-11     -1.123147344e-52    -4.151769392e-105        -0.7246242531        -0.6240705876        -0.6803938435          -0.20796992        -0.4665006951      -0.005687182531        -0.3685002128      -0.002460785967        -0.1944534662     -5.386483286e-05        -0.1612051176      -4.29143049e-07 
                   1                    1          -1.24030158         0.4123213341        0.07098017947        0.01338922606       2.26440486e-06      2.301622737e-09      2.178258467e-11      6.530073264e-53     2.413873696e-105          0.423241821         0.3646995684         0.3971500541         0.1253506178         0.2655533077       0.002585779012         0.2068000752        0.00134406368        0.08821151013      6.126154036e-05        0.06114296883      1.055885524e-06 
                   1                    1           14.9056923                   -0                   -0                   -0                   -0                   -0                   -0                   -0                   -0       0.008885865689       -0.01458337335       0.009320610227      -0.009455452613        0.01317790877      9.942421132e-06        0.01661640919      4.411683705e-06        0.03543360679     -3.446660332e-06        0.05804301763     -9.281670498e-08 
                   0                   39           4.95267529        -0.1102291628       -0.08535675033         -0.159317971        -0.2336385693        -0.1873618742        -0.1497810753     -0.0001245183327      -4.95683039e-09         -1.419942134         -1.572319162        -0.7790607057         -1.250958349       -0.06343529211        -0.5330455776       -0.05049203606        -0.3567820011       -0.08170701091       -0.05545825659         0.1299146044        0.07937500102 
                   1                    2          -0.05262031          0.203288715         0.1574180883         0.2938201178         0.4308849248         0.3455397254         0.2762318206      0.0002296413327      9.141570657e-09          2.556766336          2.715594547           1.36920679          2.341137665        0.03660781191         0.8884611128       -0.07332270143         0.5420885051        -0.1520731821         0.2107264942       -0.02389568259          0.200539403 
                   1                    1          15.02094512       -0.01817489509       -0.01407386161       -0.02626879616       -0.03852298591       -0.03089275397       -0.02469632591      -2.05309337e-05     -8.172961675e-10       -0.03456715705       0.003548534444        0.07707691865       -0.03338420556        -0.2187786807        -0.2926213193        -0.3056896408         -0.289736127        -0.3461435016        -0.4197047984        -0.3580126073        -0.6384205665 
                   0                   40           6.44999242        -0.4989494152        -0.2126120012        -0.2592683137       -0.06803641483       -0.01524845915      -0.005216752383     -1.881489156e-13     -4.712810001e-27         -2.958137876          -2.88950676         -2.170087587         -1.848476339        -0.8577165857        -0.4908728667        -0.5942343221          -0.27214151        -0.2021985655        -0.1134307831        -0.2118970437       -0.09596803652 
                   1                    3          -0.01017224         0.2832132267         0.1206826365         0.1471656514        0.03861876974       0.008655316924       0.002961128383      1.067969214e-13      2.675081053e-27          1.672885995          1.711888675          1.209800039          1.153585092         0.2570394436         0.3611992727        0.01167104177         0.3012980209        -0.2364700548        0.06635934317        -0.3437118295        0.02725471276 
                   1                    1          15.05704688       -0.03438407621       -0.01465172025        -0.0178669444      -0.004688590068      -0.001050816306     -0.0003595017972     -1.296589685e-14      -3.24773641e-28        -0.1475157665        -0.1182898828        -0.1001072413       -0.07557107717       -0.08247775932       -0.07054478128       -0.08006893706       -0.07734071685        -0.1344336783       -0.09875167077        -0.1769336615        -0.1492664882 
                   0                   41           7.11391396        -0.6630954511        -0.1666113662       -0.08634590236     -0.0007470090846     -1.349124426e-05      -8.63825074e-07     -9.197011525e-32     -1.607516544e-63         -1.597634669          -1.46327324         -1.394566386        -0.6613161092        -0.8234606647       -0.07038265947        -0.6337938488       -0.02320124136        -0.1740245208      -0.003929616114        0.05480172774      -0.001884442028 
                   1                    4          -1.32673011         0.5942392748         0.1493103553        0.07737969898       0.000669439273      1.209030644e-05      7.741250293e-07      8.241989068e-32      1.440591191e-63          1.429712733          1.295300084          1.247719921         0.5928972239         0.6919499326        0.06611677829         0.5093197497        0.03160161229         0.2579680518       0.004353577642         0.2619652316       0.002809111154 
                   1                    1          15.00931541       -0.02402318834      -0.006036138874      -0.003128213097     -2.706328312e-05     -4.887723197e-07     -3.129539256e-08     -3.331971885e-33     -5.823848231e-65           -0.0384517       -0.04322458526       -0.03086280992       -0.02938048425      -0.003710710648      -0.004026554601        0.01491637859      -0.002257317092        0.05817044595      -0.000420104583        0.04892507992     -0.0004773447816 
                   0                   46           9.21267549        -0.7390224427         -0.119000989       -0.01805900037     -1.328851532e-06     -7.394302622e-10     -4.692918638e-12     -4.970838788e-57    -8.996267634e-114        -0.6380183194        -0.5566538594        -0.6043065936        -0.1818859155        -0.4147742172      -0.001024519119        -0.3254023538      -0.000264440014        -0.1344848714     -7.939807293e-05         -0.057490653     -2.009295065e-05 