ITEM: TIMESTEP
0
ITEM: NUMBER OF ATOMS
4
ITEM: BOX BOUNDS pp pp pp
0.0000000000000000e+00 4.2600002000000003e+00
0.0000000000000000e+00 2.4767999999999999e+00
0.0000000000000000e+00 3.0000000000000000e+01
ITEM: ATOMS id type c_1[1] c_1[2] c_1[3] c_1[4] c_1[5] c_1[6] c_1[7] c_1[8] c_1[9] c_1[10] c_1[11] c_1[12] c_1[13] c_1[14] 
1 1          13.95117524          12.59105101          6.134166379         0.4196331801      0.0003171137296      5.544561817e-08          48.61253447          43.46971059          35.97608531          14.86683917          15.06424528          2.657172645          3.101919153         0.7740310268 
2 1          13.96666537          12.60740997          6.102090065         0.3334351625      0.0001288703567      1.386687969e-08          48.66772691          43.28961406          36.30526642          14.53189099          15.54829555          2.450453419          3.368495108         0.7792032067 
3 1          13.97039777          12.61133767          6.092618434         0.3145474916         8.500955e-05      5.526607609e-09          48.65380288          43.27613118          36.38595142          14.44532682          15.58944526          2.441997344          3.325780819         0.8108613977 
4 1           13.9570532          12.59706257           6.13155861         0.4024166568      0.0002732529256      4.710534609e-08          48.60859106          43.47063345          36.03788329           14.8252114           15.0733645          2.680073803          3.057125867         0.8178593382 
