ITEM: TIMESTEP
0
ITEM: NUMBER OF ATOMS
4
ITEM: BOX BOUNDS pp pp pp
0.0000000000000000e+00 4.2600002000000003e+00
0.0000000000000000e+00 2.4767999999999999e+00
0.0000000000000000e+00 3.0000000000000000e+01
ITEM: ATOMS id type c_1[1] c_1[2] c_1[3] c_1[4] c_1[5] c_1[6] c_1[7] c_1[8] c_1[9] c_1[10] c_1[11] c_1[12] c_1[13] c_1[14] 
1 1          13.95757673          12.59770207          6.117948382         0.3865301202      0.0003008176178      7.139212063e-08           48.5905022          43.44721556          36.05710568           14.7402531          15.14510837          2.618537364          3.071860723         0.7410961801 
2 1          13.96023765          12.60059617          6.098313596         0.3505007351      0.0002638983326      6.912343804e-08          48.61606325          43.35466352          36.20321662          14.55792318          15.37367259          2.498604511          3.167436933         0.6340831174 
3 1           13.9596475          12.60016791          6.099218376           0.34747052      0.0002366411377       5.48276896e-08          48.62261765          43.35099387          36.19913421          14.56424932          15.33414847          2.477463254          3.148259339         0.6161068978 
4 1          13.94718384          12.58724399          6.108831219         0.3831766679      0.0002735604228      5.709637219e-08          48.57744692          43.38886925          36.04212337           14.6871153          15.12597691          2.531405087          3.038434328         0.5721214644 
