ITEM: TIMESTEP
0
ITEM: NUMBER OF ENTRIES
576
ITEM: BOX BOUNDS pp pp pp
0 4.26
0 2.4768
0 30
ITEM: ENTRIES c_2[1] c_2[2] c_2[3] c_2[4] c_2[5] c_2[6] c_2[7] c_2[8] c_2[9] c_2[10] c_2[11] c_2[12] c_2[13] c_2[14] c_2[15] c_2[16] c_2[17] c_2[18] c_2[19] c_2[20] c_2[21] c_2[22] c_2[23] c_2[24] c_2[25] 
                   0                   98           4.91677999       -0.01459409989      -0.001567852915     -0.0003322039189     -4.762903227e-05     -7.860227358e-12     -2.316150629e-20     -3.413653363e-89     -1.37956596e-175      -0.003548232018       -0.00257776781      -0.003526017829      -0.001634756576       -0.00338792789     -0.0001753477792      -0.002884985014     -2.400222067e-07      -0.002498710765     -8.999478339e-11      -0.001629886888      3.066613143e-31      -0.001496260558      6.790709126e-58 
                   1                    2          -5.03831458         0.1337889676        0.01437302913       0.003045423813      0.0004366311799      7.205731845e-11      2.123292315e-19      3.129409574e-88     1.264693999e-174        0.03242984678        0.02352324468        0.03222291963        0.01501225135         0.0309315548       0.001638295557        0.02617141662      1.930196427e-06        0.02252754341      2.515608621e-09        0.01407235443       4.85150821e-31        0.01167181648      5.785510374e-58 
                   1                    1          14.96337103       0.001732250644      0.0001860967269      3.943103424e-05      5.653340901e-06      9.329718176e-13      2.749161269e-21      4.051845116e-90     1.637479558e-176      0.0004082132518      0.0002968285457      0.0004055354813      0.0001888047076      0.0003888545931      2.117112458e-05      0.0003279266515      2.708497789e-08      0.0002822980495      4.105267165e-11      0.0001918178363        1.5954723e-32      0.0001767387896      1.911474668e-59 
                   0                   68           4.23178463                   -0                   -0                   -0                   -0                   -0                   -0                   -0                   -0      -0.002385530087      -0.007353495857      -0.002452532809      -0.008808300166      -0.002100054259     -0.0002181895817         0.0024421574       0.000531916731       0.004840058268      5.054443939e-05        0.02498236802     -4.991745711e-05        0.03970793568     -2.865205456e-06 
                   1                    1          -3.71233429         0.8137120297         0.1388539779        0.06751915073        0.02547174737      3.870552671e-06      3.272168883e-11      3.518983774e-53     3.615938187e-106         0.8171176375         0.5572509856         0.8034056125         0.4203566645         0.7297707838        0.09706969955         0.5390940968       0.006018713239         0.4339222245       0.003165817662         0.2281043544      0.0001637943171         0.1891447531      4.090732959e-06 
                   1                    1          15.04467674                   -0                   -0                   -0                   -0                   -0                   -0                   -0                   -0       -0.00522617507      -0.002597525333      -0.005270177337     -0.0005566727527      -0.005544056666      0.0003479998439      -0.006553648105     -9.434424485e-06      -0.007343632418     -3.456351526e-06      -0.006852098437      5.924966108e-06      -0.006305384669      3.400863386e-07 
                   0                   69           0.65677979         0.5010305306        0.07813505758        0.03305793105        0.01063601283      5.173594687e-07      1.112147781e-12       2.30914003e-59     3.084297202e-118          0.397721295         0.3204492742         0.3923155185         0.2321413387         0.3602443038        0.04117871198         0.2620102373      0.0003522574914         0.2017094966      1.068138068e-05        0.07595992493      2.702218215e-14        0.03105642676      2.732064763e-25 
                   1                    2          -2.56151458         0.5329528523        0.08311330201         0.0351641618        0.01131366858      5.503221614e-07      1.183006416e-12      2.456263022e-59     3.280808037e-118         0.4207411603         0.3388741772         0.4149809879         0.2451998389         0.3809834615        0.04370619135         0.2794325278      0.0003567223113          0.218199969      7.000930534e-06        0.07707558797      4.293821908e-14        0.02753328634      2.656414627e-24 
                   1                    1          14.96337103        0.01139484976       0.001777011953      0.0007518307459        0.00024189298      1.176621594e-08      2.529338254e-14      5.251636795e-61       7.0145632e-120       0.007743050546        0.00670697287       0.007607294654       0.005246256344       0.006805228098       0.001030891657       0.004332419853       1.03607822e-05       0.002686020726       1.58458817e-07      -0.001164238981      1.124612051e-15      -0.001510451026      9.122468711e-26 
                   0                   70           2.19877154          0.435622896        0.09483811391        0.06389258721        0.03497410736       7.94555237e-05      1.791404628e-08      4.204489443e-39      6.291887817e-78         0.7769340169         0.5333659545         0.7538232292         0.3868705061         0.6545782982         0.1408849246         0.4248480953        0.02493860675         0.3119062135        0.02086305082         0.1722015934        0.01687225087         0.1856479501        0.01304352371 
                   1                    3          -2.48390325         0.7982087761         0.1737755649         0.1170728727        0.06408441725      0.0001455894465      3.282460378e-08      7.704049542e-39      1.152887077e-77          1.415512245          1.237457626           1.37235881         0.9558139503          1.191445501          0.261300729         0.7554974316        0.04562962465         0.5323192136        0.03891727566         0.2086839992        0.03622801516         0.1649524514        0.03403958818 
                   1                    1          14.96534494        0.01699878305       0.003700752505       0.002493202811       0.001364752103      3.100496375e-06      6.990380651e-10      1.640666837e-40      2.455206946e-79        0.02089861055        0.04890397026        0.01953949596        0.04227858621        0.01949109829       0.005287306563        0.01133801583       0.001040212085       0.007994482085       0.001520045758      -0.004059225557       0.006159739754       -0.01412450306        0.01100914334 
                   0                   71           2.93712483         0.1832628283        0.02872268598        0.01224966985       0.003977415362      2.065001469e-07      4.799498094e-13      1.848937227e-59     5.342335167e-118         0.1479536383         0.1183404636         0.1460211167        0.08446548918         0.1347781608        0.01450430627         0.1033255468      0.0001288767312           0.08542788      1.442590625e-06        0.03042872199      2.166962909e-13       0.002494611384      1.258764433e-22 
                   1                    4           -3.7997978         0.7135770774         0.1118385573        0.04769698087         0.0154870055      8.040570624e-07      1.868797865e-12      7.199273498e-59     2.080164292e-117         0.5755314446         0.4586078092         0.5678582543         0.3281078775         0.5225890997        0.05820345348         0.3872753154      0.0005380434713         0.3069696604      2.120546283e-05         0.1369417226      3.759856375e-13          0.068719952      8.462334219e-23 
                   1                    1          14.96952175        0.01063840557       0.001667351669      0.0007110932272      0.0002308889267      1.198733171e-08      2.786108221e-14      1.073307898e-60     3.101225094e-119       0.007214978136       0.005818775364       0.007096690434       0.004224646207       0.006416710899      0.0008798358882       0.004615013053      1.085168763e-05       0.003755837805      2.028889768e-07       0.001913066528      1.060035692e-14      0.0006097140399      5.591676038e-24 
                   0                   73           4.91677999          -0.15828128       -0.03944391024       -0.03088380498       -0.02007315632     -0.0001616287209     -1.711700729e-07     -9.041978148e-33     -6.583481636e-65        -0.3784285405        -0.2972593416        -0.3649274177         -0.220305822        -0.3078323301       -0.08114228302        -0.1840415229       -0.01971658034        -0.1348689188       -0.01722628218        -0.1247999542      -0.001205082924        -0.2893872662     -0.0008230383191 
                   1                    2          -2.56151458         0.8787051228         0.2189745116         0.1714527305         0.1114369639      0.0008972885805      9.502577936e-07      5.019691854e-32      3.654847268e-64          2.065943663          1.774703112          1.986479917          1.388338677           1.63869649          0.486824051          1.072194617        0.09540238716         0.8311336374        0.04016638747         0.3517600939       0.004022521394         0.1463104392       0.002578962812 
                   1                    1          14.96337103        0.01878723945       0.004681805622       0.003665761606       0.002382588733      1.918456486e-05      2.031707822e-08      1.073240048e-33      7.814281379e-66        0.03495499583         0.0264588645        0.03327779517        0.01898716518        0.02718641056       0.009113528126        0.01800299361       0.003196874062        0.01399420255       0.002235506544        0.02013927474      0.0001438626851        0.03676300299      9.769091454e-05 
                   0                   74           6.45877174        -0.4650982873       -0.09790940254       -0.06333086765       -0.03309244664     -5.347916184e-05     -7.958733961e-09     -6.838659624e-41     -1.642720441e-81        -0.7693284623        -0.5801772615        -0.7480023617         -0.419621372        -0.6457754833        -0.1389940008        -0.4568646833       -0.01751923728        -0.3642978428      -0.003385457807         -0.207975304     -3.021403239e-08         -0.224252335     -1.568033597e-14 
                   1                    3          -2.48390325         0.7779882045         0.1637769099         0.1059360341        0.05535503752      8.945669816e-05      1.331288743e-08      1.143929502e-40      2.747843115e-81          1.279492913          1.077476703          1.243101904         0.8169531124          1.068557997         0.2372797707         0.7430482176         0.0300379064         0.5799096704       0.005655670615         0.2492645614      1.093268273e-08         0.1614146584     -3.922971412e-15 
                   1                    1          14.96534494        0.01656816249       0.003487819532       0.002256030897       0.001178849822      1.905084296e-06      2.835134016e-10      2.436130749e-42      5.851851092e-83        0.02176296325        0.04091542099        0.02101429786        0.04208817009        0.01763717811       0.004681458022       0.009610474655       0.001023487573       0.002666447243      0.0003455041665       -0.03408782052      5.849862575e-09       -0.06775657565      2.177268641e-15 
                   0                   75           7.19712503        -0.2217615231       -0.02796314666      -0.008169157748      -0.001714510052     -4.123420264e-09     -2.545879457e-16     -3.938816399e-75    -3.951871321e-149       -0.09232109267       -0.07233420734        -0.0915478892        -0.0479016371        -0.0867973503      -0.006048883668       -0.07013181825     -2.152463251e-05       -0.05783884106     -3.724387491e-07       -0.02936554898     -8.631830184e-20       -0.02446975796      7.582919694e-36 
                   1                    4           -3.7997978         0.3769934548        0.04753720627        0.01388752638       0.002914658317      7.009793355e-09      4.327982054e-16      6.695967728e-75     6.718161029e-149         0.1566903477         0.1125144435          0.155371869        0.07517489965         0.1472686326        0.01031711912         0.1188238139      3.570006747e-05        0.09783319683      6.224931548e-07        0.04848411263       2.52278423e-19        0.03813535796      9.402244949e-35 
                   1                    1          14.96952175       0.005620428956      0.0007087112184      0.0002070429988      4.345335389e-05       1.04505914e-10      6.452397342e-18      9.982722627e-77     1.001580964e-150        0.00209763028       0.007211945373        0.00207563187       0.005284854159       0.001938464191      0.0001740570242       0.001422542041      3.937491788e-07      0.0009861987852      5.607857848e-09     -0.0006451642979      6.941037177e-21      -0.001755530055      3.943314713e-36 
                   0                   80           9.17678019        -0.1505494307       -0.01661848071      -0.003728340239     -0.0005727454378     -1.549721433e-10     -7.941898618e-19     -6.750696677e-86    -3.896901122e-170        -0.0400382305       -0.02931190863        -0.0397594657       -0.01899977879        -0.0380231333       -0.00220378886       -0.03167995402     -3.072150697e-06       -0.02692039304     -9.984878876e-09       -0.01608955612     -8.961059615e-25       -0.01261842449     -1.493684027e-44 
                   1                    2          -2.56151458         0.1157749083        0.01277987617       0.002867152984      0.0004404503575      1.191760447e-10       6.10744644e-19      5.191393189e-86     2.996778986e-170        0.03082871751        0.02269280301        0.03061468451        0.01471470236        0.02928248694       0.001691128243         0.0244306897      2.276419297e-06        0.02079849502      5.369826213e-09         0.0127919862      9.403793216e-25          0.010508036      3.971537638e-44 
                   1                    1          14.96337103        0.00247533657      0.0002732413724      6.130144032e-05      9.417091261e-06      2.548054895e-12      1.305808464e-20      1.109950817e-87     6.407292154e-172      0.0006298954044      0.0005037690939      0.0006249840131      0.0003489400049      0.0005942812814      3.893583552e-05       0.000480307252      4.713166413e-08      0.0003925737845      1.354823942e-10      0.0001801243209      2.154111446e-26      9.362277184e-05      1.010345023e-45 
                   0                   42          -0.02821557         0.7091767466         0.1220831632        0.06014235769        0.02302895094      3.894688774e-06       3.74652031e-11      1.123147344e-52     4.151769392e-105         0.7250006212         0.5599223531         0.7122665651         0.3999063948         0.6437969104        0.09024392225         0.4643268767       0.005559901728          0.365157381       0.003143470388          0.183641475      0.0002633124394         0.1517769752      1.162574702e-05 
                   1                    1          -1.23553429         0.4123213341        0.07098017947        0.03496727337        0.01338922606       2.26440486e-06      2.178258467e-11      6.530073264e-53     2.413873696e-105         0.4175301494         0.3379810875         0.4102086086         0.2411214818         0.3717476245         0.0510049698         0.2761953752       0.003834831186         0.2253040551       0.001882373682         0.1411152698      6.365971911e-05         0.1205066095     -8.361785418e-07 
                   1                    1          15.04467674                   -0                   -0                   -0                   -0                   -0                   -0                   -0                   -0      -0.005661260704         0.0282708098       -0.00573524154        0.02999324226      -0.006227423596      0.0006159637145      -0.008506688005     -1.518741583e-05       -0.01087161485     -3.302067431e-06       -0.02290717705      9.662197873e-06       -0.03713677001      8.206100556e-07 
                   0                   44          -2.06122866        0.06162899341       0.006398203727       0.001259272529      0.0001649792321      1.402048293e-11      1.954500766e-20      1.436218898e-91     1.006012682e-180        0.01274741741       0.009527656679        0.01267015799       0.006232058882        0.01218460547      0.0006150008395        0.01034069785      5.342341714e-07       0.008864236249      1.682276327e-09       0.004712179502      8.251840391e-26       0.002957605722      1.392198883e-45 
                   1                    3          -0.00710325        0.01222557762       0.001269235987      0.0002498066769      3.272755719e-05      2.781296476e-12      3.877217442e-21      2.849082005e-92     1.995665586e-181       0.002528399333       0.001891166817       0.002513121971       0.001238288581       0.002417078993      0.0001216397913       0.002050963967      1.127325237e-07        0.00175414148      2.775867563e-10      0.0009167754532      1.767602403e-26      0.0005866059784      6.214592134e-46 
                   1                    1          14.96534494      0.0007769154067      8.065786532e-05      1.587480462e-05      2.079782584e-06      1.767468296e-13      2.463908095e-22      1.810544887e-93      1.26821275e-182      0.0001578804125      0.0001199527396      0.0001568876455      7.978730011e-05      0.0001506446061       7.90633428e-06       0.000126856184      6.718327297e-09      0.0001076505725      2.084489874e-11      5.174402621e-05      1.044952392e-27      2.665790058e-05      1.755074465e-47 
                   0                   45          -1.32287537         0.2461476157        0.02831558173       0.006914050878       0.001175208443      6.488591371e-10      7.421484891e-18      2.622671967e-82     2.585372396e-163        0.07460485902        0.05484952219        0.07403748069        0.03566495888        0.07054462655       0.004445355166        0.05832343053      1.244345659e-05        0.04962247464      2.178958046e-07        0.03129697145      8.879972639e-19        0.02606550809      5.281273454e-33 
                   1                    4           -1.3229978         0.1136320403        0.01307165749       0.003191815228      0.0005425253981      2.995405315e-10      3.426068004e-18      1.210735135e-82     1.193516092e-163        0.03439362719        0.02523747731        0.03413836448        0.01639953139        0.03256175795       0.002004995118        0.02699361925      4.633381537e-06        0.02302130551      7.854353347e-08        0.01415234003      6.816583582e-19        0.01096510134      8.091611742e-33 
                   1                    1          14.96952175       0.003330396748      0.0003831120647      9.354765632e-05      1.590066337e-05      8.779115547e-12      1.004132787e-19      3.548495956e-84      3.49802934e-165      0.0009318802539      0.0007878990504      0.0009234376758      0.0005736328815      0.0008711264792      6.647568184e-05      0.0006829595335      1.285704179e-07      0.0005410523307      1.681183204e-09      0.0001409470204      2.700115964e-20     -6.282867337e-05      3.832711741e-34 
                   0                   34           4.23178463                   -0                   -0                   -0                   -0                   -0                   -0                   -0                   -0      -0.001450786751        -0.1101594556       0.006382850732        -0.1473257739       -0.04269414758        0.02554956558         0.1484629241       -0.07491934087          0.286725482        -0.1504298541         0.4146554228       -0.03996427256         0.5020856195      -0.004242341091 
                   1                    1          -1.23553429         0.5572350607         0.2433932895         0.2899488464         0.3048959963        0.08916197783       0.007813167168      8.180428237e-13      7.761829956e-26          3.235592079          3.269473283           2.96281497          2.870413977          1.982223505           1.61705872         0.8966937731         0.6638698886         0.5672473848         0.4467352895        0.08717098594         0.1712061056        0.03060156203         0.1531168513 
                   1                    1          15.04467674                   -0                   -0                   -0                   -0                   -0                   -0                   -0                   -0       -0.07596043467       -0.02941112515       -0.08154113897       0.003732722793       -0.08879199551        0.01867359636        -0.1112317891        0.01842786756        -0.1300263915        0.02471815679       -0.09963745497       0.007319047751       -0.07398304042      0.0007388781041 
                   0                   35           0.65677979         0.8320551852         0.2112235332         0.1685503752          0.111952146          0.001058339      1.364264875e-06      3.452401625e-31      1.780044867e-62          2.040389072          1.746634138          1.960639907           1.36660765          1.614024215         0.4865254248          1.029540643        0.09886186282         0.7854995774        0.04862679407         0.3749764078       0.004176422113          0.264682533       0.002741561932 
                   1                    2          -0.08471458         0.3086118272        0.07834345808        0.06251585254        0.04152339524        0.00039254119       5.06010038e-07       1.28050638e-31      6.602241156e-63         0.7525556926         0.6630496007         0.7232221468          0.524034693         0.5928236363         0.1812955201         0.4144494664        0.03200373122         0.3428131195       0.004917502338        0.08707664642      0.0007466693866        -0.1568211901      0.0007381922013 
                   1                    1          14.96337103         0.0189232856       0.004803819884       0.003833311713       0.002546108081      2.406961883e-05      3.102723752e-08      7.851736651e-33      4.048324917e-64        0.03592203016        0.03741690309        0.03394851709        0.03397113552        0.02626749799        0.01122918067        0.01004975607       0.003388052743     -0.0008844048818        0.00257975846       -0.03138525981      0.0001974506723       -0.02983123038      0.0001515147668 
                   0                   36           2.19877154         0.4491800917         0.2047377684          0.248948122         0.2680239554        0.09360414697        0.01020954611      6.134185099e-12      5.166618778e-24          2.862945048          2.920469919          2.575549911          2.614367339          1.697420125          1.408122004         0.6362516874         0.6362555933          0.242545972         0.4936348067        -0.2763495433         0.1722618885        -0.2986184155        0.08096190126 
                   1                    3          -0.00710325         0.2758184326          0.125718952         0.1528662603         0.1645797502        0.05747750085       0.006269158091      3.766688129e-12      3.172555328e-24          1.752417256          1.582599436          1.594327553          1.324621721          1.033003955         0.8633412652         0.6394662305         0.2640588414         0.6312967127        0.07694515832         0.5767003814        0.03660764432         0.5203897102          0.120860882 
                   1                    1          14.96534494        0.01752780903       0.007989233209       0.009714400131         0.0104587732       0.003652600912      0.0003983947148       2.39366853e-13      2.016106879e-25        0.03688887672        0.01559450225        0.01641116615       0.008207330242        0.03746116549        0.05132685761        0.02131311099        0.05374650437        0.01141956088        0.06755070881        0.05192152163        0.07808553832        0.09801352837         0.1071519163 
                   0                   37           2.93712483         0.3077040913         0.1126725562         0.1214504263         0.1138474679        0.01403631353      0.0004243379872       9.09975605e-18      2.121688705e-35          1.446411967           1.49281342           1.34047153          1.275030118          0.951344054          0.562105154          0.491676132         0.2234225122         0.3388156534         0.1647022251         0.1042487038        0.02455504414       -0.03553361954       -0.07688126044 
                   1                    4           -1.3229978         0.6094530573         0.2231645136          0.240550372         0.2254915985        0.02780097644      0.0008404635848      1.802340073e-17      4.202315485e-35          2.775089413          2.599410996          2.548410478          2.223942356          1.891313825          1.104761166          0.888193671         0.4479096074         0.4837385914         0.3620005122        0.05032027417          0.274400776        0.08390177824         0.2743432036 
                   1                    1          14.96952175        0.01786221979       0.006540640898       0.007050196181       0.006608844513       0.000814807877      2.463281643e-05      5.282407586e-19      1.231640106e-36       0.003908481283        0.01162357408       -0.01487622195       0.006030618026         0.0332943341        0.02974832462        0.02112596262        0.02610418923         0.0260171001        0.04032137849        0.03006665345         0.1469372377        0.03488162516         0.2483797641 
                   0                   38           8.49178483        -0.7091767466        -0.1220831632       -0.06014235769       -0.02302895094     -3.894688774e-06      -3.74652031e-11     -1.123147344e-52    -4.151769392e-105        -0.7175307884        -0.5697301131        -0.7042288631         -0.409764367        -0.6342736123       -0.09273527879        -0.4586628149      -0.007147637437        -0.3617095307      -0.003297062494        -0.1975741707     -6.463188155e-05        -0.1706679339     -4.105765798e-07 
                   1                    1          -1.23553429         0.4123213341        0.07098017947        0.03496727337        0.01338922606       2.26440486e-06      2.178258467e-11      6.530073264e-53     2.413873696e-105         0.4192542074         0.3159580585         0.4115769837         0.2260143015         0.3703568716        0.05434582197         0.2634076523       0.003436447003         0.2061647331        0.00193494363        0.09566948914      8.897474993e-05        0.07102628071      1.481475256e-06 
                   1                    1          15.04467674                   -0                   -0                   -0                   -0                   -0                   -0                   -0                   -0      -0.005640641034         0.0360435107      -0.005705565744         0.0359892917        -0.0061296695      0.0005331092365      -0.008068626186     -6.541202309e-06        -0.0100007813      6.208041987e-06       -0.02040490206      4.597484853e-06       -0.03382575744      1.111651539e-07 
                   0                   39           4.91677999        -0.1094518344       -0.08333406689        -0.1190973486        -0.1544529816        -0.2201330146        -0.1362354617     -8.547473741e-05     -2.393617515e-09         -1.345385302         -1.504884199          -1.13813024         -1.397434138        -0.5364861606        -0.9627327092        -0.1737380191        -0.5366352885        -0.1921606991        -0.3868136063        -0.2948595038        -0.1256482665        0.08998219194        0.01209902524 
                   1                    2          -0.08471458         0.2118714718         0.1613139835         0.2305427833         0.2989824769         0.4261226507         0.2637178987      0.0001654577881      4.633446928e-09          2.471743558          2.752123513          2.047086136          2.652355112         0.7930345859          2.058490606       0.008475197184          0.925607034        -0.1165538427         0.5686938271        -0.2364513471          0.227317812       -0.02578252998         0.2352969991 
                   1                    1          14.96337103        0.01299141516       0.009891359666        0.01413629209        0.01833283854        0.02612874786        0.01617050506      1.014544713e-05        2.8411108e-10       -0.08918074889      -0.001896677076        -0.1585516714       -0.04294636868        0.01483400188         0.1139487398          0.167456172         0.2047179711         0.2301616849         0.2025405499         0.2547772648         0.3307792102         0.2657390718         0.5550261685 
                   0                   40           6.45877174        -0.5080334551        -0.2140827487        -0.2504057234        -0.2578299209       -0.06435025714      -0.004638383105     -1.021467512e-13     -1.381237007e-27         -2.876215609          -2.78348667         -2.609824897         -2.427934009         -1.722103978         -1.388061206        -0.8270866371        -0.5029531937        -0.5501044386        -0.2816309962        -0.1751023529        -0.1343747726        -0.2197156167        -0.1395036993 
                   1                    3          -0.00710325         0.2847853017         0.1200070971         0.1403684517         0.1445301901         0.0360724421       0.002600110915      5.725979865e-14      7.742718393e-28          1.608876685          1.679378528           1.44668616          1.521227873          0.942788565         0.7950965781         0.2512064496         0.3752992027        0.03070167194         0.3168059048        -0.1853599565        0.07242696347        -0.3413918588        0.02398348009 