ITEM: TIMESTEP
0
ITEM: NUMBER OF ATOMS
4
ITEM: BOX BOUNDS pp pp pp
0.0000000000000000e+00 4.2600002000000003e+00
0.0000000000000000e+00 2.4767999999999999e+00
0.0000000000000000e+00 3.0000000000000000e+01
ITEM: ATOMS id type c_1[1] c_1[2] c_1[3] c_1[4] c_1[5] c_1[6] c_1[7] c_1[8] c_1[9] c_1[10] c_1[11] c_1[12] c_1[13] c_1[14] c_1[15] c_1[16] c_1[17] c_1[18] c_1[19] c_1[20] 
1 1          13.94877519           12.5898578          6.075781232          1.114830501         0.4968422255         0.3104731158       7.61773404e-05      3.652439408e-09          49.26791044          45.75057197          41.37093632          23.19594971           21.5577659          3.975253146          15.33259165          2.308468722          4.961092569         0.6943890083          3.022646997         0.4692078991 
2 1          13.94290902          12.58331386          6.114223396          1.222822137         0.5820881225         0.3781373595      0.0001458193338      9.512568344e-09          49.27143123          45.89020298          41.15252136          23.57030249          21.13288545           4.23540347          14.90209305          2.549792184          4.702434635          0.802713396          2.822604593         0.5324890918 
3 1          13.94432165          12.58452388          6.123312412          1.251379733         0.6108440807         0.4041890758      0.0002728650446      4.566748661e-08          49.28625282          45.93179261          41.10442255          23.63363441          21.11717068          4.314977029          14.90612136           2.61070641          4.736237787         0.8494615748          2.867236419         0.5535496662 
4 1          13.95147255          12.59203914          6.088773444           1.14899341         0.5276892117         0.3374635582      0.0002032230522      3.980735767e-08          49.28246913          45.77878877          41.31939948          23.27373686          21.53082539          4.060013219          15.33064386          2.368278727          5.013609223         0.7351320343          3.100400831         0.5113317934 
