ITEM: TIMESTEP
0
ITEM: NUMBER OF ATOMS
4
ITEM: BOX BOUNDS pp pp pp
0.0000000000000000e+00 4.2600002000000003e+00
0.0000000000000000e+00 2.4767999999999999e+00
0.0000000000000000e+00 3.0000000000000000e+01
ITEM: ATOMS id type c_1[1] c_1[2] c_1[3] c_1[4] c_1[5] c_1[6] c_1[7] c_1[8] c_1[9] c_1[10] c_1[11] c_1[12] c_1[13] c_1[14] c_1[15] c_1[16] c_1[17] c_1[18] c_1[19] c_1[20] c_1[21] c_1[22] 
1 1          13.96462849          12.60566802          8.792512812          6.105737035          1.164323849         0.3395432088      8.381744126e-05      3.012656105e-09          48.64394381          43.28637819          46.06434408          35.19269073          36.26359536          14.58165247          21.63014136          4.176561201          15.45292233           2.49313784          5.166838803         0.9493216659          3.339468607         0.8270421157 
2 1          13.95863959           12.5990588          8.794426192          6.126145942          1.231105948         0.3861614712      0.0001622928064      1.228160281e-08          48.61977599           43.4151669          45.99199124          35.38745489           36.0844466          14.78108065          21.36523149          4.323322221          15.18618524           2.62792179          5.012853559          0.987912814          3.199698607         0.8270646828 
3 1          13.96034183          12.60075045          8.795009401          6.124204304          1.225819686         0.3857329067      0.0002080001889      2.260382378e-08          48.63720254          43.43799947          46.00661265           35.4023427          36.10446574          14.76299591          21.37853801          4.332363493          15.17898438          2.650358275           4.95498173          1.002863614          3.135641148         0.7855578294 
4 1          13.96839322          12.60917197          8.793470635          6.102969213          1.155054731         0.3381543042      0.0001295248218      1.333487708e-08          48.61933292          43.28029423          46.04439406          35.17488995          36.29837961          14.55395359           21.6582915          4.170876851          15.46746273          2.497646054          5.174203977         0.9712997664          3.331973359         0.8792232518 
