ITEM: TIMESTEP
0
ITEM: NUMBER OF ENTRIES
588
ITEM: BOX BOUNDS pp pp pp
0 4.26
0 2.4768
0 30
ITEM: ENTRIES c_2[1] c_2[2] c_2[3] c_2[4] c_2[5] c_2[6] c_2[7] c_2[8] c_2[9] c_2[10] c_2[11] c_2[12] c_2[13] c_2[14] c_2[15] c_2[16] c_2[17] c_2[18] c_2[19] c_2[20] c_2[21] c_2[22] c_2[23] 
                   0                  102           5.04704429       -0.02550150864      -0.002820043257      -9.79926534e-05     -2.737242324e-11     -3.016495825e-16     -1.453723726e-19     -1.610204361e-86    -1.287124088e-170      -0.006800404415       -0.00564812466      -0.006615255395      -0.001327413384      -0.005296058017     -5.687963484e-07      -0.004461060403       1.52355014e-10      -0.002898233859      4.616317733e-25      -0.002626690698     -1.859058079e-43 
                   1                    2          -5.00179421         0.1918433906        0.02121469235      0.0007371815978      2.059179541e-10      2.269257067e-15      1.093610941e-18      1.211328587e-85     9.682809464e-170        0.05147896078        0.04252935566         0.0501398633       0.009893738015        0.04045345862      3.877235936e-06        0.03424152527      1.108976113e-08        0.02063809703      5.033663656e-24        0.01641278763      2.315795176e-42 
                   1                    1          15.06173687       -0.00114910315     -0.0001270717209      -4.41556883e-06     -1.233406941e-12     -1.359239135e-17     -6.550508582e-21     -7.255613497e-88    -5.799807237e-172     -0.0003181552391     -0.0002633237945     -0.0003104620095     -5.902808449e-05     -0.0002535518145     -2.556497214e-08     -0.0002153664743     -1.052603079e-10     -0.0001382386797     -5.544566083e-26     -0.0001205421577     -1.659877572e-44 
                   0                   68           4.22567981                   -0                   -0                   -0                   -0                   -0                   -0                   -0                   -0     -2.138595301e-05      -0.004134106727      0.0008617758002      -0.006511640229       0.009148434179      0.0004802421389        0.01152847933      0.0001034085141        0.02904043153     -1.073142126e-05         0.0355574075     -3.812962162e-07 
                   1                    1          -3.77641284         0.8137120297         0.1388539779        0.02547174737      3.870552671e-06      3.640260861e-09      3.272168883e-11      3.518983774e-53     3.615938187e-106          0.815394381         0.5998331218         0.7658858852         0.2343660867         0.5145985242       0.004294524556         0.4006976215       0.001719224034         0.2081399459      5.437686079e-05         0.1758165389      7.492989781e-07 
                   1                    1          15.02472602                   -0                   -0                   -0                   -0                   -0                   -0                   -0                   -0       0.000586254539      0.0002898712803      0.0006499498118     -0.0002490821366      0.0009574320127      1.707509888e-05       0.001013469181      4.755463362e-06       0.001444752727     -4.835600179e-07         0.0016236855     -1.718128481e-08 
                   0                   69           0.78704409         0.5349648554        0.08827086348        0.01452437422        1.4555698e-06      1.012594115e-09      7.452101598e-12      1.499045244e-55       1.0710431e-110         0.4928490504         0.4292669409         0.4651373006         0.1440144087         0.3114797139      0.0008346166489         0.2393590444      3.414675467e-05         0.1145059389      2.029465528e-14         0.0815636399     -2.310107595e-24 
                   1                    2          -2.52499421         0.5759659012        0.09503616344        0.01563755862      1.567128313e-06      1.090201863e-09       8.02324932e-12      1.613935824e-55     1.153130524e-110          0.533058817         0.4677954324         0.5043331446         0.1547793902          0.346649772      0.0008846500466          0.271232592      3.584141011e-05        0.08897398436      3.071627143e-13        0.01449039129      2.395574236e-23 
                   1                    1          15.06173687      -0.005757953337     -0.0009500801928     -0.0001563292769     -1.566664222e-08     -1.089879009e-11     -8.020873302e-14     -1.613457871e-57    -1.152789034e-112       -0.00609805202      -0.004758865275      -0.005935865432     -0.0008604748751      -0.005067178425     -1.082345458e-05      -0.004575174266     -4.265374658e-07      -0.005076182507     -6.409442087e-15      -0.005464091944     -5.497403255e-25 
                   0                   70           2.07609664       0.002056526925       0.000207956396       4.70759732e-06      2.295100058e-13      7.528016655e-19      1.661663887e-22      1.228936595e-95     4.557185888e-187      0.0003912533188      0.0003261068534      0.0003820263554       7.49369746e-05      0.0003132266395      1.837622908e-08      0.0002663223241      3.518388052e-11      0.0001348284816      1.190758009e-30        8.1758185e-05      7.273544292e-55 
                   1                    3          -4.94817802       0.005860195872      0.0005925841274      1.341457875e-05      6.540024212e-13       2.14515315e-18      4.735010143e-22       3.50192797e-95     1.298597242e-186       0.001115026272      0.0009293522945        0.00108872995      0.0002134672231      0.0008926571667      5.227819646e-08      0.0007590307734      9.930153336e-11      0.0003856437314      3.029253592e-30      0.0002352394495       1.63532572e-54 
                   1                    1          15.07742684     -5.041938215e-05     -5.098417566e-06     -1.154150453e-07     -5.626842297e-15     -1.845625962e-20     -4.073861883e-24     -3.012954659e-97     -1.11727444e-188     -9.610990396e-06     -7.974516208e-06     -9.385848515e-06     -1.817142465e-06     -7.710938841e-06     -4.533154804e-10     -6.574210374e-06     -8.431736181e-13     -3.420402492e-06     -2.046140334e-32     -2.152948059e-06     -7.500440164e-57 
                   0                   71           2.74410817         0.2113679752        0.03325942661       0.004668615754      2.552379574e-07      1.146208836e-10      6.311148782e-13      3.969587093e-59     2.115170054e-117         0.1707688276         0.1506370421         0.1616606569        0.05034622759         0.1102612052      0.0001566301369        0.08595224628      1.473451374e-06        0.02074234704      5.523910948e-14      -0.006163829006      8.421056546e-24 
                   1                    4          -3.80004512         0.7100753557         0.1117326272        0.01568387542      8.574533735e-07      3.850605305e-10      2.120184579e-12      1.333553943e-58     7.105760118e-117         0.5749671651         0.5026054755         0.5443283673         0.1665081211         0.3680662515      0.0005753674592         0.2848467013      1.654631235e-05         0.1153100446        9.0645656e-14        0.05208483212      5.217637086e-24 
                   1                    1          14.96278313       0.008837063889       0.001390540254       0.000195189719      1.067121987e-08      4.792173791e-12      2.638622286e-14      1.659640952e-60     8.843294678e-119       0.009065408681       0.007627985913       0.008755505286       0.001927960012       0.006954974012      9.118434525e-06       0.005964333118      2.612447225e-07       0.003504780847      7.221986969e-16       0.001993844558     -3.372351087e-26 
                   0                   73           5.04704429        -0.1917105407       -0.04904964631       -0.02644137964     -0.0002672657756     -5.412391825e-06      -3.73965866e-07     -1.819430703e-31     -2.122982401e-62        -0.4710993311         -0.423594704        -0.4067179261        -0.2120790743        -0.1690710715       -0.02244574158       -0.09147826452        -0.0158926697        -0.1506834085      -0.001712749403        -0.2792823096      -0.001391464515 
                   1                    2          -2.52499421         0.8641074816          0.221084173         0.1191806871       0.001204661754      2.439557185e-05       1.68559695e-06      8.200820241e-31      9.569035534e-62          2.160275702          1.973903339          1.885275833         0.9000702755          1.080995572         0.0945451657         0.8164025053        0.03552863982         0.2642955062       0.005063434827        0.06809798887        0.00266297892 
                   1                    1          15.06173687      -0.008638515834      -0.002210187007      -0.001191453927     -1.204305004e-05      -2.43883473e-07     -1.685097775e-08     -8.198391637e-33     -9.566201744e-64       -0.02529336781       -0.02163016209       -0.02299936941      -0.007936602452        -0.0152416253     -0.0009219150195        -0.0122919968     -0.0007310020883        -0.0111925612     -7.785662088e-05       -0.01501151995     -6.270001677e-05 
                   0                   74           6.33609684      -0.005189754626     -0.0005271471557     -1.220394507e-05      -6.56394603e-13     -2.314263405e-18     -5.356897146e-22      -9.50953523e-95    -9.433285792e-186      -0.001015688661     -0.0008426182211     -0.0009937770691     -0.0001851007362     -0.0008270248164     -3.111810675e-08     -0.0007105583834     -5.921829768e-11     -0.0003817722985     -5.615928411e-30     -0.0002463453805     -9.684606484e-54 
                   1                    3          -4.94817802        0.01506296709       0.001530014583      3.542125521e-05      1.905147934e-12      6.717017668e-18      1.554808873e-21      2.760088416e-94     2.737957451e-185       0.002948481013       0.002447110845        0.00288494132      0.0005376589155       0.002401355805      9.259089482e-08       0.002063098233      1.735891626e-10         0.0011059019      1.271736846e-29      0.0007124306398      1.683595274e-53 
                   1                    1          15.07742684     -0.0001295972883     -1.316379036e-05     -3.047539437e-07     -1.639132614e-14     -5.779122202e-20     -1.337711306e-23     -2.374697974e-96     -2.35565715e-187     -2.546546073e-05     -2.114804483e-05     -2.491780849e-05     -4.650165048e-06     -2.074671484e-05     -8.022215308e-10     -1.782217688e-05     -1.498860086e-12     -9.458446954e-06     -8.156790787e-32     -6.014283817e-06     -5.736151405e-56 
                   0                   75           7.00410837        -0.2530284676       -0.03355178046      -0.002516214654     -1.288990215e-08     -1.067115862e-12     -1.921348991e-15     -2.909981465e-71    -1.552002079e-141        -0.1250806585        -0.1068698856        -0.1211527754       -0.02730127953       -0.09495896965     -4.216542323e-05       -0.07899068312     -8.969045347e-07       -0.03865082111     -3.356124788e-18       -0.02594206996     -4.597446718e-32 
                   1                    4          -3.80004512         0.4532711314        0.06010412042       0.004507506501      2.309076361e-08      1.911614209e-12      3.441873711e-15      5.212894041e-71     2.780231588e-141         0.2246960075          0.184514344         0.2177876149        0.04644425081         0.1715361633      7.294831947e-05         0.1432401634      1.701122814e-06        0.07503848169      4.906999746e-18         0.0593645178       1.78752696e-32 
                   1                    1          14.96278313       0.005641071634      0.0007480106835       5.60970362e-05      2.873702793e-10      2.379051289e-14      4.283497187e-17      6.487575905e-73     3.460067157e-143       0.003371166211      -0.001505951566       0.003326443048     -0.0006089131527       0.003127829871      1.272853677e-06       0.003107510046      2.766391902e-08       0.004095168796      1.660777809e-20       0.005960464876     -3.756540641e-34 
                   0                   80           9.30704449        -0.1261266785       -0.01369203676     -0.0004368021475     -8.743289775e-11     -7.679354271e-16     -3.197455474e-19     -2.265949751e-87    -6.217603899e-173       -0.03201637667       -0.02636222489       -0.03125331698      -0.005874633453       -0.02566750694     -1.989460916e-06       -0.02199449569     -4.163328807e-09       -0.01333068702     -3.116908295e-29       -0.01040023877     -1.971447593e-54 
                   1                    2          -2.52499421        0.09189339262       0.009975746003       0.000318245368      6.370187254e-11       5.59502498e-16      2.329602544e-19      1.650925978e-87     4.530022695e-173        0.02328528388         0.0191579482        0.02272674104       0.004273788275        0.01865136559      1.536589966e-06        0.01596834815      2.599536118e-09       0.009708704907     -2.561469268e-30        0.00779562161     -9.280705831e-55 
                   1                    1          15.06173687     -0.0009186617916      -9.97279177e-05     -3.181511223e-06     -6.368300776e-13      -5.59336806e-18     -2.328912652e-21      -1.65043707e-89    -4.528681166e-175      -0.000240738816     -0.0001875912124     -0.0002354126627     -3.770148837e-05     -0.0001959461867     -1.431643818e-08     -0.0001695762971      -3.74193147e-11     -0.0001218635458     -5.579233976e-31     -0.0001281801862     -4.539337072e-56 
                   0                   42          -0.03432039         0.7091767466         0.1220831632        0.02302895094      3.894688774e-06      3.958702083e-09       3.74652031e-11      1.123147344e-52     4.151769392e-105         0.7314765358         0.6382535612         0.6894213291         0.2084346689         0.4769976388         0.0037440301         0.3784214715       0.001631593473         0.1777276067      0.0001980952522          0.128543765       1.46032152e-05 
                   1                    1          -1.29961284         0.4123213341        0.07098017947        0.01338922606       2.26440486e-06      2.301622737e-09      2.178258467e-11      6.530073264e-53     2.413873696e-105         0.4263883751          0.334112596         0.4027957116         0.1055850325         0.2873879049       0.002718300965         0.2344798458       0.001100377064         0.1573758813      8.692756192e-05         0.1605395314      3.193406819e-06 
                   1                    1          15.02472602                   -0                   -0                   -0                   -0                   -0                   -0                   -0                   -0      0.0005723136305       -0.02111835453      0.0005258512135      -0.005296214233      0.0004968356721      1.797252644e-06       0.001238010554      4.730922184e-06        0.01224718197     -1.350915952e-06         0.0228009742     -2.533336534e-07 
                   0                   45          -1.51589203         0.1587760218        0.01738192183      0.0005766058345      1.344787325e-10      1.310676645e-15      5.835367007e-19      1.450623306e-86     1.850698369e-171        0.04203476861        0.03429812279        0.04100440999       0.007611868512        0.03357163303      2.860648144e-06         0.0287958042      4.415337443e-09        0.01830683848      3.049533265e-30        0.01559321298      3.661085845e-57 
                   1                    4          -1.32324512          0.069146342       0.007569759578      0.0002511096058      5.856496672e-11      5.707945984e-16      2.541279712e-19      6.317408268e-87     8.059719656e-172        0.01830507445        0.01492504024        0.01785752685       0.003320317355        0.01461706166      1.166343604e-06        0.01254152282      2.396655614e-09       0.007902412533      7.682245017e-30        0.00646271782      1.037518818e-55 
                   1                    1          14.96278313       0.001712953512      0.0001875246887      6.220706241e-06      1.450822452e-12       1.41402218e-17      6.295479822e-21      1.565003494e-88     1.996624072e-173      0.0004908147878      0.0003153523263      0.0004809505806      3.955146587e-05      0.0004135955263      2.755144952e-08      0.0003777566973      4.431022149e-11      0.0004035153452      3.289983724e-32      0.0005249087941      3.949758779e-59 
                   0                   34           4.22567981                   -0                   -0                   -0                   -0                   -0                   -0                   -0                   -0        0.01683010636       -0.06439512637        0.03771308257        -0.1224927353         0.2717642764       -0.07213929461         0.3633188562        -0.1362508813         0.3848621694       -0.02179369658         0.4476907006      -0.001380202806 
                   1                    1          -1.29961284         0.5572350607         0.2433932895         0.3048959963        0.08916197783        0.02165100651       0.007813167168      8.180428237e-13      7.761829956e-26          3.308324717          3.384880916          2.483076026          2.214482356         0.8337815109         0.6130768871         0.4757042267         0.3934954164        0.05361023002         0.1590456109        0.02186869985         0.1496236227 
                   1                    1          15.02472602                   -0                   -0                   -0                   -0                   -0                   -0                   -0                   -0       0.008978660375       0.003612640708        0.01070311069      -0.005469994087        0.02104319662      -0.004375769549        0.02256539898      -0.007063301884         0.0190741535      -0.001003568332         0.0203716226     -6.328530493e-05 
                   0                   35           0.78704409         0.8154537937         0.2198068213         0.1321617175       0.002057645612      5.727192207e-05      4.889468927e-06      1.621589278e-28       3.69821028e-57          2.251681526          2.046255905          1.935622312         0.9594646099          1.090538225         0.1390235377         0.8267203935        0.07333467651         0.4010928016        0.01157921303         0.3500963139       0.006018875192 
                   1                    2          -0.04819421         0.2905925397        0.07832966495        0.04709673245      0.0007332560946      2.040924135e-05      1.742395711e-06      5.778644359e-29      1.317882541e-57         0.8083851378         0.7644076439         0.6987701597         0.3431864712          0.447097518        0.04811829067          0.369007586        0.01271906579        0.06019040609      0.0009806029328        -0.3007009626     -0.0002494309254 
                   1                    1          15.06173687      -0.008776922157      -0.002365832835      -0.001422487842     -2.214692666e-05     -6.164312505e-07     -5.262651114e-08     -1.745354914e-30     -3.980471242e-59       -0.02910801225       -0.02451681718       -0.02744614369      -0.003527122194       -0.03038147849      -0.002084059139       -0.03466124328      -0.001650301953       -0.02453794963     -0.0004349525561       0.008382360855     -0.0003967613283 
                   0                   36           2.07609664         0.4617023256          0.100851979        0.03750961664      8.809959958e-05       6.10700788e-07        2.0686291e-08      6.709086939e-39      1.503875286e-77         0.8243247166         0.7422641818         0.7418697379         0.3172460609         0.4079494118        0.02173645547         0.2841788596        0.01742343202         0.1247868298        0.01446444007         0.1039762536         0.0116527824 
                   1                    3          -2.47137802         0.7836640388         0.1711797079        0.06366642756      0.0001495346334      1.036564512e-06      3.511158913e-08      1.138757566e-38      2.552581859e-77          1.402039574          1.245704157          1.267769549         0.5223251357         0.7268576009        0.03724213673         0.5183608877        0.03005095854         0.2335241599        0.02907063874         0.2112002856        0.02898382351 
                   1                    1          15.07742684       -0.01131944625      -0.002472564015     -0.0009196143616     -2.159916957e-06     -1.497240616e-08     -5.071608831e-10     -1.644850909e-40     -3.687015318e-79       -0.02312402287        0.07841247616       -0.02287358212        0.01850622045       -0.02045627061     -0.0005339241882       -0.02151218668     -0.0006053861557       -0.05132012599      -0.002163739712       -0.09143200901      -0.003971778348 
                   0                   37           2.74410817         0.3531313391         0.1274907535         0.1263086166        0.01439076898       0.001740024801      0.0003947622091      3.898126686e-18      3.448521144e-36          1.677926985          1.567120775          1.267764938         0.9577036157         0.4190770073         0.2297973603         0.2056579897         0.1769418699        0.02773438297         0.0699044813        0.01239664683       0.009791153945 
                   1                    4          -1.32324512         0.5959759052         0.2151647526         0.2131696731        0.02428714367       0.002936620858        0.00066623587      6.578825846e-18      5.820031481e-36          2.664082879          2.653171678          2.100183687          1.568846197         0.8488978694         0.4010484935         0.4994292595         0.3214782622        0.08349629627         0.2545510083         0.0633999048         0.2740260975 
                   1                    1          14.96278313         0.0147640351       0.005330248978       0.005280825126       0.000601662313      7.274853402e-05      1.650457624e-05      1.629764137e-19      1.441788977e-37         0.1043373424       -0.05930477554        0.08950352147       -0.00757757165         0.0778111771       0.009548352692        0.08030436192       0.007696903492        0.08881482098      0.0006698876637         0.1392928668      -0.004629169254 
                   0                   38           8.48568001        -0.7091767466        -0.1220831632       -0.02302895094     -3.894688774e-06     -3.958702083e-09      -3.74652031e-11     -1.123147344e-52    -4.151769392e-105        -0.7349898386        -0.6349381344        -0.6936021579        -0.2016794936        -0.4880726948      -0.004249878285        -0.3936683523      -0.001881358935        -0.2114554052     -7.922262987e-05        -0.1712083735     -1.491588417e-06 
                   1                    1          -1.29961284         0.4123213341        0.07098017947        0.01338922606       2.26440486e-06      2.301622737e-09      2.178258467e-11      6.530073264e-53     2.413873696e-105         0.4282811383         0.3447806219         0.4032238822         0.1200228394          0.272580301       0.001865651146         0.2127805189      0.0009708117149        0.08723014686      7.026436837e-05        0.07053895835       2.31009421e-06 
                   1                    1          15.02472602                   -0                   -0                   -0                   -0                   -0                   -0                   -0                   -0      0.0007296659071       -0.02921659176       0.000828517059       -0.00637635976       0.001388994487     -2.625240114e-05       0.002020799317     -7.815848223e-06       0.007821218474      1.694003631e-06        0.01659873872      1.009859763e-07 
                   0                   39           5.04704429        -0.1298673925        -0.1002252689        -0.1868110651        -0.2724212774        -0.2175540685        -0.1734352672     -0.0001364052253      -5.06646032e-09         -1.457249339         -1.659156011        -0.8107221693         -1.528689992        0.07186727488        -0.4993998307         0.1896039407        -0.2601964253         0.4617756753        -0.1283019682         0.1321993256        -0.3437791336 
                   1                    2          -0.04819421         0.1937472185         0.1495245781          0.278700631          0.406421225         0.3245656575         0.2587454784      0.0002035009133      7.558576294e-09           2.51754031          2.643952906          1.349482545          2.142839691          0.154472153          0.908743683         0.1107794838         0.6150769602         0.2143488233         0.2308910001       0.009167519101        0.04288902108 
                   1                    1          15.06173687      -0.005851851037      -0.004516170937      -0.008417744469       -0.01227535799      -0.009803030435      -0.007815028304     -6.146447108e-06     -2.282957292e-10       -0.07007315589       -0.03500221512       -0.05370975352       0.001616126487        -0.1139119891       -0.04990119087        -0.1354305692       -0.05443605973        -0.2018919178       -0.04423065291        -0.2170722246       -0.03724316044 
                   0                   40           6.33609684        -0.4554998387        -0.1001886283       -0.03792281834      -9.54046992e-05     -6.955064471e-07     -2.436114186e-08     -1.540630509e-38     -7.953824768e-77         -0.832166034        -0.7775492782        -0.7504968091        -0.3128229329        -0.4727217489        -0.0195620758        -0.3673763353       -0.00353730361        -0.1180805668     -5.268759507e-06       -0.01233012125     -1.765257229e-07 
                   1                    3          -2.47137802         0.7874845717         0.1732097189        0.06556233795      0.0001649390895      1.202416664e-06      4.211642186e-08      2.663497665e-38      1.375085951e-76          1.447619667          1.244585598          1.309913416          0.486120709         0.8512122177        0.03394877927         0.6827364967       0.006688196621         0.3685862547      1.387387899e-05         0.3337304857       4.18216726e-07 
                   1                    1          15.07742684       -0.01137463102       -0.00250188602     -0.0009469993821     -2.382422909e-06     -1.736801758e-08     -6.083405004e-10      -3.84722498e-40     -1.986209747e-78       -0.02498719421       -0.02681499024       -0.02318201537       -0.01019759316       -0.01657130743      -0.000488250156       -0.01317663616     -7.621697109e-05       0.002231296354     -1.303210537e-07        0.01990460897     -4.408156252e-09 
                   0                   41           7.00410837        -0.6528173314        -0.1703582798       -0.09578626698      -0.001143601055     -2.617851124e-05     -1.962409437e-06     -4.857033079e-30     -4.326266698e-60         -1.700353105         -1.543131796         -1.480989953        -0.6900708244        -0.8905115466       -0.07934141866        -0.7087517089       -0.02738756295        -0.3188465032       -0.00437368351        -0.1052306185      -0.002437812887 
                   1                    4          -1.32324512         0.5874995499         0.1533130447        0.08620235099       0.001029177801      2.355921455e-05       1.76606013e-06      4.371061567e-30      3.893401133e-60          1.534830425          1.395559762          1.339326056         0.6356114416          0.756035384         0.0744451986         0.5708587662        0.03819669922         0.2436714793       0.004977635154         0.1656167751       0.003547075991 
                   1                    1          14.96278313        0.01455405143       0.003798004504       0.002135479848      2.549569041e-05      5.836294176e-07      4.375038237e-08      1.082837508e-31      9.645072976e-62        0.05373318106        0.03427909372        0.05128649255      -0.002344215575        0.05661981327        0.00222326409        0.06935578965       0.001646874892         0.1230128277      0.0001130455943         0.1111666027      4.411416347e-05 
                   0                   46           9.30704449        -0.7086786448        -0.1102508882       -0.01488347181     -7.014403149e-07     -2.830450616e-10     -1.451857713e-12     -2.234056443e-59    -2.052919049e-118        -0.5648929608        -0.4917951043        -0.5370886238        -0.1568653471        -0.3738455391     -0.0004907670624        -0.2931874849     -1.421859215e-05        -0.1184099664     -5.850991036e-14       -0.05001214245      -2.25658196e-24 
                   1                    2          -0.04819421         0.1708992886        0.02658722469       0.003589179329      1.691537507e-07      6.825688909e-11      3.501184241e-13      5.387472298e-60     4.950655807e-119         0.1353696523         0.1170402575         0.1284048364        0.03821712443        0.08559951523       0.000135169199        0.06440297371      6.477448107e-06        0.03908098876      -7.10889169e-15        0.03243219105     -1.527346799e-24 
                   1                    1          15.06173687      -0.005161762769      -0.000803028191     -0.0001084059061     -5.109041353e-09     -2.061599389e-12     -1.057481433e-14     -1.627207121e-61    -1.495273096e-120       -0.00460494191      -0.003612755418      -0.004440456059     -0.0006995368412      -0.003729267548     -4.728851608e-06      -0.003653401127     -1.143506169e-07      -0.004042467707     -4.261653418e-16      -0.003631439045     -1.643613905e-26 
                   0                    8          -0.03432039         0.9092325462         0.1968793749        0.07160755061      0.0001541166679      1.002058221e-06      3.252824998e-08      4.514180833e-39      3.503902196e-78          1.613128507          1.405825183          1.465571559         0.5403552697          0.962906623        0.04159116165          0.763626381        0.01077176959         0.3618693303      1.977246286e-05         0.2924821556      7.492003212e-07 