ITEM: TIMESTEP
0
ITEM: NUMBER OF ENTRIES
588
ITEM: BOX BOUNDS pp pp pp
0 4.26
0 2.4768
0 30
ITEM: ENTRIES c_2[1] c_2[2] c_2[3] c_2[4] c_2[5] c_2[6] c_2[7] c_2[8] c_2[9] c_2[10] c_2[11] c_2[12] c_2[13] c_2[14] c_2[15] c_2[16] c_2[17] c_2[18] c_2[19] c_2[20] c_2[21] c_2[22] c_2[23] 
                   0                   94           0.68329436       -0.01658762765      -0.001812288321      -5.95634519e-05     -1.339766152e-11     -1.273989729e-16     -5.582679221e-20     -1.029955204e-87     -9.11657616e-173      -0.004273067431      -0.003496734025      -0.004165591289     -0.0007695491636      -0.003400805488     -2.915401102e-07      -0.002914999396     -7.526530514e-10      -0.001959044088     -2.276908598e-21      -0.001931033356     -6.538323913e-36 
                   1                    2          -4.99717634          0.168303898        0.01838811403      0.0006043517097      1.359373809e-10      1.292634739e-15      5.664382477e-19      1.045028736e-86     9.249998469e-172         0.0434514673         0.0353514067        0.04239574498       0.007787097792        0.03476575066      2.616288462e-06        0.02989402711      6.515347845e-09        0.01930563174      7.469183645e-21        0.01631928839      2.416982061e-35 
                   1                    1          14.92867664     -0.0002298227427      -2.51093816e-05     -8.252557972e-07     -1.856255386e-13     -1.765121691e-18     -7.734841155e-22     -1.427010147e-89    -1.263108011e-174     -3.325148917e-05     -2.684048747e-05     -3.180440039e-05     -7.007753273e-06     -2.294594597e-05     -5.541609176e-09      -1.94294436e-05      2.289567796e-11     -2.225411532e-05      6.720869476e-23     -2.569929397e-05      1.756937173e-37 
                   0                   77          -3.57670584          0.504615869        0.07821881912        0.01042732798      4.684968036e-07      1.826535399e-10       9.15794045e-13       8.96050326e-60      4.67897014e-119         0.3933632646         0.3423424206         0.3738563511         0.1099296231         0.2576970007      0.0003532466297         0.1998307065        1.1620988e-05        0.08679682175      6.462399872e-15         0.0431985976     -2.842387267e-26 
                   1                    2          -2.52037634         0.5207203254        0.08071511706        0.01076010874      4.834485457e-07      1.884827976e-10      9.450209603e-13      9.246471345e-60     4.828296142e-119         0.4062557842         0.3533478335         0.3864046124         0.1119197425         0.2707109343      0.0003374729102         0.2140912988      9.120057375e-06         0.0859578154      2.147614457e-14        0.03532568364      3.135458241e-25 
                   1                    1          14.92867664      -0.001179257086     -0.0001827926991     -2.436804145e-05     -1.094848992e-09     -4.268503913e-13     -2.140155875e-15     -2.094015986e-62    -1.093447319e-121       0.000747330676     -3.322353165e-05      0.0008986474522     -0.0009506305358       0.002010170304     -7.694254773e-07       0.002807398009      1.739610942e-08       0.005460211661     -2.157194669e-16       0.005059621717     -4.679943415e-27 
                   0                   78          -2.08454895         0.4443840642        0.09222794159        0.03001711368      4.186642372e-05       1.98117817e-07      5.206944722e-09      1.072212017e-41       4.32311359e-83         0.7090584787         0.7057581818         0.6484721792         0.2671586268         0.3857442059        0.01860845792         0.2728076111        0.01596289765        0.09755208792        0.01666494294        0.07157066928        0.01787213712 
                   1                    3          -2.57481645          0.787614755         0.1634624044        0.05320155141      7.420296027e-05      3.511388649e-07      9.228653371e-09      1.900360686e-41      7.662174065e-83          1.262996233          1.070461496          1.150647381         0.4435334208         0.6802686189        0.03284526562           0.48427819         0.0279419775          0.218075116        0.02619504504         0.2007476206        0.02473667607 
                   1                    1          14.97205536       -0.01071165529      -0.002223108339     -0.0007235474909     -1.009169175e-06      -4.77553075e-09     -1.255107946e-10     -2.584513365e-43     -1.042064878e-84       -0.01323277683       -0.07842467489       -0.01276578741       -0.01722530941      -0.006694824646     -0.0004341633569      -0.003367478122      -0.000461815618        0.01166952268      -0.001163378499         0.0259473682       -0.00201262439 
                   0                   79          -1.45627423         0.2036025712        0.03102392556       0.003896518982      1.396170501e-07      4.625568811e-11      2.082167295e-13      2.394655549e-61     8.638724229e-122         0.1517181897         0.1327497926         0.1447162627        0.04133792025         0.1039226303        0.00010276183        0.08336234422      1.845124565e-06         0.0227719965      9.621118622e-15      -0.005303743924      1.136597658e-25 
                   1                    4          -3.82245187         0.6761543103         0.1030289591        0.01294015144      4.636614834e-07      1.536129073e-10      6.914777073e-13      7.952535478e-61     2.868878614e-121         0.5035842322         0.4380949238         0.4794930244         0.1387628016         0.3348947291       0.000417971602         0.2606092696      1.270769969e-05         0.1032024301      9.328331808e-15        0.04868614408      3.661338228e-26 
                   1                    1          14.99741511       -0.01031635607      -0.001571953933      -0.000197433053     -7.074268233e-09     -2.343733411e-12     -1.055015125e-14     -1.213350065e-62    -4.377162556e-123      -0.007693215606       -0.00662066929      -0.007369134624      -0.001908712035      -0.005530885687     -7.604673411e-06      -0.004595689209     -1.647112432e-07      -0.001938803575      -3.31371289e-16     -0.0005720668581     -3.406847104e-27 
                   0                   68           0.06846239                   -0                   -0                   -0                   -0                   -0                   -0                   -0                   -0     -0.0004679921151      -0.006929456899      8.357936221e-05      -0.007930696802       0.008522860929      0.0004575772695        0.01377116138      7.107208967e-05        0.03955114804     -7.994853032e-05        0.05001101568     -1.070908914e-05 
                   1                    1          -3.71247516         0.8137120297         0.1388539779        0.02547174737      3.870552671e-06      3.640260861e-09      3.272168883e-11      3.518983774e-53     3.615938187e-106         0.8173524778         0.5965017052         0.7697712545         0.2236785715          0.535304507       0.006016280776         0.4286583304       0.003359805104         0.2313244934      0.0003328618867         0.1953615447      1.902603596e-05 
                   1                    1           14.9201581                   -0                   -0                   -0                   -0                   -0                   -0                   -0                   -0       0.003002326138       0.002363428347       0.003018993985      0.0002402801493       0.002971825831     -7.769443823e-06       0.002853279378      4.403207622e-07       0.001430441894     -1.107691611e-06      0.0009867850127       -1.4837518e-07 
                   0                   69           0.68329436        -0.1431442917       -0.03637040606       -0.01931400936     -0.0001839752556     -3.566487683e-06     -2.393700402e-07      -6.52328263e-32     -3.689571999e-63        -0.3504052924        -0.2988623209        -0.3041910814        -0.1444763813         -0.136456479       -0.02235012938       -0.07782311745       -0.02142676904       -0.09160211994      -0.002696372349        -0.2970443941      -0.001384015206 
                   1                    2          -2.52037634         0.8757472749           0.22251173         0.1181618272       0.001125548402       2.18195349e-05      1.464450016e-06      3.990901012e-31      2.257255658e-62          2.160723835          1.960641674           1.88530465         0.8769443852          1.111144728         0.1096696987         0.8685866509        0.05275578941         0.4035518893       0.006171614975         0.1921012515       0.004036923405 
                   1                    1          14.92867664      -0.001983274186     -0.0005039145229     -0.0002675969523      -2.54899005e-06      -4.94139366e-08     -3.316488669e-09     -9.038053766e-34     -5.111927842e-65       0.007640202463       0.006443336915       0.008390763554      0.0002133158745       0.008292765547     -0.0006572451725       0.007137856284     -0.0003692393858      0.0002808401596      -3.70195109e-05      -0.003598397374     -1.913269524e-05 
                   0                   70           2.17545125        -0.4377303053       -0.09155748455       -0.03042365819     -4.600945214e-05     -2.310079981e-07     -6.315103012e-09      -2.85029725e-41     -3.063140038e-82        -0.7185694169         -0.573542894        -0.6546830698         -0.220332786        -0.4368989719       -0.01636010826        -0.3566233874      -0.004327860265         -0.205826937     -5.563365172e-07         -0.215825961     -3.718968892e-12 
                   1                    3          -2.57481645         0.7927679057         0.1658186203        0.05509990854      8.332714591e-05       4.18375709e-07      1.143720443e-08       5.16213786e-41      5.547614784e-82          1.303062359          1.167565636          1.186575141         0.4432455635         0.7801852795        0.02855493965         0.6198711045        0.00588994956         0.2728168651     -4.743307019e-08         0.1819813848     -1.132869994e-12 
                   1                    1          14.97205536       -0.01078173876      -0.002255153158      -0.000749365376     -1.133259195e-06     -5.689959907e-09     -1.555473544e-10     -7.020569509e-43     -7.544822756e-84       -0.01527610006        -0.0098500044        -0.0140647848       -0.00251100275        -0.0109706035     -0.0005258086895        -0.0100314453     -0.0001676752444      -0.009719056271     -1.113156891e-08       -0.01420135796      -6.90240903e-14 
                   0                   71           2.80372597        -0.2327091113       -0.03028742673      -0.002110042014     -8.196579905e-09     -5.583069162e-13     -8.840292265e-16     -1.063058891e-72    -2.413032662e-144        -0.1084828331       -0.09473188691        -0.1051749974       -0.02245030008       -0.08307211101     -3.584540247e-05       -0.06945635392     -6.326451962e-07       -0.03564726485     -7.111919592e-19       -0.02913447511     -1.118119545e-33 
                   1                    4          -3.82245187         0.4307959368        0.05606871298        0.00390615357      1.517367884e-08      1.033549351e-12      1.636533252e-15      1.967956683e-72     4.467056148e-144         0.2008412468         0.1612489023          0.194683033        0.04167743878         0.1532888807      6.718728662e-05          0.127547281      1.292458273e-06        0.06326425612      4.926334892e-19        0.04912434835      1.153472585e-34 
                   1                    1          14.99741511      -0.006572825476     -0.0008554627228      -5.95977434e-05     -2.315108717e-10     -1.576927479e-14     -2.496924073e-17     -3.002590023e-74    -6.815565779e-146      -0.003079232053     -0.0007682646247      -0.002998065495     -0.0003734678952      -0.002461027698     -9.019307655e-07      -0.002129781009     -1.660527036e-08       -0.00135052122     -2.038076351e-20      -0.001402759076     -2.876217962e-35 
                   0                   73           4.94329456        -0.1942079864       -0.02204486761     -0.0008622748422     -3.797376495e-10      -5.70945874e-15     -3.364318883e-18     -1.719489041e-83    -1.549955265e-165       -0.05754761343       -0.04752418792       -0.05601046889       -0.01114293595       -0.04498555361      -4.35147841e-06       -0.03803012137     -8.234416046e-09       -0.02327895066     -1.129932437e-26       -0.01897780186     -1.634130378e-46 
                   1                    2          -2.52037634         0.1498540964        0.01701018469      0.0006653455387      2.930118549e-10      4.405512854e-15      2.595964129e-18      1.326786201e-83     1.195971134e-165        0.04437032748         0.0365284638        0.04317312549       0.008562841825        0.03464095554      3.457196652e-06        0.02928325137      4.671077567e-09        0.01817181769      2.781688918e-26        0.01537675272      3.630878434e-46 
                   1                    1          14.92867664     -0.0003393693245     -3.852236959e-05     -1.506784742e-06      -6.63573687e-13     -9.977010686e-18     -5.878989057e-21     -3.004726248e-86    -2.708473946e-168     -2.693248539e-05     -0.0001253315819      -2.09859283e-05      -8.00110597e-05      2.782949727e-05     -1.164845316e-08      6.840543277e-05     -4.848161578e-11       0.000283413905      2.894004081e-28      0.0004950173824       3.55077783e-48 
                   0                   50          -5.71627443         0.1098592088        0.01172142569       0.000344698947      4.998977209e-11      3.524801114e-16      1.274531803e-19       6.62164201e-89     7.545329582e-176        0.02601135854        0.02134143826        0.02540097561       0.004699494221        0.02092449094      1.412640299e-06        0.01797940027      2.078952352e-09        0.01108216507      9.618055853e-31       0.008856890576      1.625249981e-57 
                   1                    4          -1.34565187        0.04912604522       0.005241502236      0.0001541399783      2.235406419e-11      1.576195031e-16      5.699358997e-20      2.961017911e-89     3.374065829e-176        0.01163857661        0.00954256798        0.01136650584       0.002104490074       0.009362983566      6.009730218e-07       0.008042737671      1.102279703e-09        0.00489823941      1.666323746e-30       0.003790264256      1.015331823e-56 
                   1                    1          14.99741511      -0.001467204862     -0.0001565433882     -4.603564661e-06     -6.676293913e-13     -4.707484599e-18     -1.702177978e-21     -8.843414643e-91    -1.007702893e-177     -0.0003466525061     -0.0002777307632     -0.0003384240517     -5.997644312e-05      -0.000278402269     -1.919738742e-08     -0.0002394874571     -2.792533142e-11     -0.0001565280869     -1.284522094e-32     -0.0001406128234     -2.170573319e-59 
                   0                   42          -4.19153781         0.7091767466         0.1220831632        0.02302895094      3.894688774e-06      3.958702083e-09       3.74652031e-11      1.123147344e-52     4.151769392e-105         0.7289627474         0.6107939282         0.6845416863         0.2067092284         0.4665179363       0.005571742975         0.3692015627       0.002996103172           0.18260566      0.0001367516581         0.1505221509      2.801056142e-06 
                   1                    1          -1.23567516         0.4123213341        0.07098017947        0.01338922606       2.26440486e-06      2.301622737e-09      2.178258467e-11      6.530073264e-53     2.413873696e-105         0.4233416192         0.3807016396         0.3979738617         0.1203621556         0.2803582734        0.00382764089         0.2278991349         0.0017578143         0.1326964601      2.398775916e-05         0.1067403571     -4.723446976e-07 
                   1                    1           14.9201581                   -0                   -0                   -0                   -0                   -0                   -0                   -0                   -0       0.003423675616       -0.01673254513        0.00367055811       -0.00563618253       0.005684541097       1.23275007e-06       0.007195394017      3.692417053e-08        0.01213546409     -5.666650719e-07        0.01953654723     -2.144257145e-08 
                   0                   43          -3.57670584         0.8422727137         0.2098875023         0.1068035161      0.0008596931981      1.472403359e-05      9.100710471e-07      4.791773765e-32       3.47472941e-64          1.995652069          1.809768975          1.747028558         0.8113487938          1.009444614        0.09110632406         0.7741314158        0.04189677233         0.3428015914       0.006615836661         0.2030504166       0.004902545988 
                   1                    2          -0.04357634         0.2968501537        0.07397264127        0.03764177522        0.00030298982      5.189330678e-06      3.207449627e-07      1.688810234e-32      1.224631811e-64         0.7058377573         0.6443280509         0.6181714299         0.2802623641         0.3942251984        0.02833737332          0.321919313       0.004366298383         0.1097469813       0.001676902385       -0.06409487545      0.0007872529515 
                   1                    1          14.92867664      -0.001968340924     -0.0004904945316     -0.0002495934252     -2.009051554e-06      -3.44091853e-08     -2.126781572e-09     -1.119808851e-34     -8.120234677e-67       0.007909467886      -0.001170680252       0.009778324313       -0.01135373134        0.02240898205     -0.0002627380413        0.03228587661      -0.000182914698        0.06571618668     -8.143217381e-05        0.05805146075     -0.0001464488016 
                   0                   44          -2.08454895         0.4896268681         0.2080603232         0.2529358924        0.06555511654        0.01455786541       0.004950096399      1.579879323e-13      3.396685624e-27          2.889338743          2.913129701          2.100584507          1.898096562         0.6488161364         0.5794369422         0.2812652143         0.4368298355        -0.1708617808         0.1380976608        -0.2149712568        0.07268313276 
                   1                    3          -0.09801645         0.3045406885         0.1294104515         0.1573223935        0.04077431535       0.009054777514       0.003078886931      9.826616308e-14      2.112688347e-27          1.778095476          1.667719123           1.31975281           1.04171037         0.6586564331         0.2651713096         0.6040616525        0.09998053735         0.4257543453        0.08615876264         0.3909858266          0.146098509 
                   1                    1          14.97205536       -0.01180221042      -0.005015189883      -0.006096893001      -0.001580173251     -0.0003509100544     -0.0001193195944     -3.808219979e-15     -8.187540572e-29       -0.03514925899       -0.01725169254       -0.02651843504        -0.0299249486      -0.004727982033       -0.02110889818        0.00620111705       -0.02380382948       -0.04102200902        -0.0389368018       -0.07508566634       -0.06657530341 
                   0                   45          -1.45627423         0.3658615862         0.1268820225           0.11861139        0.01070852734       0.001090229041      0.0002205934852      2.216120799e-19      1.127425383e-38          1.514464327          1.411730112          1.214013077         0.8634884335          0.516506201          0.230352701         0.2860382525         0.1917760178        0.01583489616         0.1968192999        0.06433777536         0.2515949576 
                   1                    4          -1.34565187         0.6206988261         0.2152604302          0.201228971        0.01816744529        0.00184961721      0.0003742456779      3.759737645e-19      1.912722293e-38          2.682286067          2.643629089          2.101878879          1.507125019         0.8636674511         0.3841882815         0.5026094023         0.3039283958        0.09146668644         0.1771993682        0.02585748323         0.1234511726 
                   1                    1          14.99741511       -0.01853787195      -0.006428996035      -0.006009930646     -0.0005425912862     -5.524090839e-05     -1.117727014e-05      -1.12288814e-20     -5.712561302e-40       -0.04539890455         0.0233045867       -0.05044822826       -0.01604561802       -0.04657181799       -0.01573903202       -0.04370557945       -0.01919638062       -0.03566856561       -0.05241232208       -0.04997035553        -0.0935326498 
                   0                   34           0.06846239                   -0                   -0                   -0                   -0                   -0                   -0                   -0                   -0         0.0182356359        -0.1113318163        0.03811120965        -0.1534433052         0.2551846958       -0.08510883275         0.4401892853        -0.1679991007         0.6864828448        -0.1005252197         0.6431167993       -0.01439328367 
                   1                    1          -1.23567516         0.5572350607         0.2433932895         0.3048959963        0.08916197783        0.02165100651       0.007813167168      8.180428237e-13      7.761829956e-26          3.303887281          3.376225056          2.463890119           2.19104305         0.9075072518         0.6695786779         0.5784824591         0.4618008476         0.1005993403         0.1802747063        0.03942006612         0.1543685095 
                   1                    1           14.9201581                   -0                   -0                   -0                   -0                   -0                   -0                   -0                   -0        0.04178361764        0.03106725396        0.04657684204      -0.002409274371        0.04562421868       -0.00503672972        0.04329022797      -0.004635634427        0.01973324249      -0.001740642754        0.01125171524     -0.0002107118386 
                   0                   35           0.68329436        -0.0943916662       -0.07562051908         -0.143064404        -0.2216247494        -0.1851018178        -0.1520346216     -0.0002170563499     -1.698434662e-08           -1.2786871         -1.422921702        -0.6245896934         -1.144458034      -0.007711885248        -0.6372791427       -0.06326864905        -0.4982294153        -0.4342721266        0.06756914835       -0.01766307482         0.4813139025 
                   1                    2          -0.04357634         0.1972328878         0.1580102773         0.2989353476         0.4630884387         0.3867731923         0.3176787598      0.0004535426952      3.548906239e-08           2.55601855          2.730019932          1.355374818          2.378067418        0.04713294253         0.9010774627       -0.07244565707         0.5246549526        -0.2884972065          0.307686185       -0.07381925271          0.432437394 
                   1                    1          14.92867664      -0.001307803145      -0.001047727587      -0.001982167336      -0.003070626422      -0.002564598648      -0.002106450328     -3.007330927e-06     -2.353193118e-10        0.06995520024        0.01234042409        0.09217233425       -0.02580482115        0.04873066924       -0.05400988645        0.04074355939       -0.05256309411        0.02800760563        -0.1098405312        0.03827357012        -0.1741775998 
                   0                   36           2.17545125        -0.4758332107        -0.2058791986        -0.2552897839        -0.0716559631       -0.01687985465      -0.005969565311     -4.174798142e-13     -2.392267307e-26         -2.897107296         -2.830497544         -2.126568688         -1.786891335        -0.8797134022        -0.4707899015        -0.6241747057        -0.2516769585        -0.2631950964       -0.09856887276        -0.2773299302       -0.04592941532 
                   1                    3          -0.09801645         0.3024258513         0.1308508748         0.1622548163        0.04554246142        0.01072834829       0.003794083368      2.653381171e-13      1.520456035e-26          1.811542315          1.837188835          1.327046985          1.255014421         0.2760077392         0.3585008418       0.009774495266         0.2962751742        -0.2843648119         0.1253471766         -0.377661433         0.1598409367 
                   1                    1          14.97205536       -0.01172025174       -0.00507101224      -0.006288044774      -0.001764958619     -0.0004157678391     -0.0001470364124     -1.028294875e-14     -5.892395579e-28       -0.04242774839       -0.02847400654       -0.03138261667        -0.0211965409       -0.03306693063       -0.02677721697       -0.02983378945       -0.03069135705       -0.02643846377        -0.0385335432       -0.04017963024       -0.06266540865 
                   0                   37           2.80372597        -0.6405951243        -0.1655158064       -0.09112360446      -0.001000981184     -2.155096271e-05      -1.55095277e-06     -1.700984144e-30     -5.479925797e-61          -1.63783591         -1.505522654         -1.425515557         -0.683869109        -0.8480046328       -0.07658653089        -0.6571499356        -0.0248695776        -0.1533713291      -0.003175340839          0.107590926     -0.0008331662447 
                   1                    4          -1.34565187         0.6058196951         0.1565305941        0.08617685676      0.0009466417911      2.038104438e-05      1.466757549e-06        1.6086443e-30      5.182441841e-61           1.54810801          1.400726385          1.346474066         0.6502534053         0.7312543122        0.07125196855         0.5264450958        0.03174692685         0.2990954666       0.004426452849         0.3431054415       0.002128128933 
                   1                    1          14.99741511       -0.01809348989      -0.004674963103      -0.002573769224     -2.827252698e-05     -6.087029248e-07     -4.380637191e-08      -4.80439801e-32     -1.547794828e-62       -0.04606220625       -0.03984553122       -0.04136380763       -0.01395190516       -0.03142026233      -0.002784733102       -0.02829723253      -0.001567111593       -0.01883767351     -0.0002669542187       -0.01026072383     -0.0001916523244 
                   0                   38           4.32846259        -0.7091767466        -0.1220831632       -0.02302895094     -3.894688774e-06     -3.958702083e-09      -3.74652031e-11     -1.123147344e-52    -4.151769392e-105        -0.7290227838        -0.6116455821         -0.685659705        -0.2037902758        -0.4688702436      -0.004436933324        -0.3684816738      -0.001584277791        -0.2035873038     -3.277990462e-05         -0.180990161     -2.623640303e-07 
                   1                    1          -1.23567516         0.4123213341        0.07098017947        0.01338922606       2.26440486e-06      2.301622737e-09      2.178258467e-11      6.530073264e-53     2.413873696e-105         0.4247744231         0.3884950185         0.3986989557         0.1332377593         0.2641522374       0.001892230694         0.2034268257      0.0007783018769        0.07195768142       2.97962614e-05        0.02938288102      4.351248575e-07 
                   1                    1           14.9201581                   -0                   -0                   -0                   -0                   -0                   -0                   -0                   -0       0.003329515623       -0.01079186823       0.003489443627      -0.004620650868       0.005084438621      1.829659276e-05       0.006553312202      7.737138537e-06         0.0141969287     -8.325039147e-07         0.0222446187     -2.190891766e-08 
                   0                   39           4.94329456        -0.7634481334        -0.1264669571       -0.02107870563      -2.21890436e-06     -1.599550294e-09       -1.2052892e-11     -3.877026475e-55     -4.97797487e-110        -0.7123411616        -0.6247275226        -0.6721643966         -0.211174214        -0.4510307246      -0.001086042381        -0.3492272099      -4.01433351e-05        -0.1330716144     -3.366066562e-13       -0.05142501752     -3.157603429e-23 
                   1                    2          -0.04357634         0.2011972276        0.03332878823       0.005555029805      5.847645519e-07      4.215415173e-10      3.176389264e-12      1.021741942e-55     1.311883151e-110         0.1876020156          0.162412327         0.1766125759        0.05519824158         0.1155100412      0.0002858113753        0.08796827689      1.271069294e-05        0.05492919032     -1.425246208e-13         0.0521321265     -3.416200524e-23 
                   1                    1          14.92867664      -0.001334089715     -0.0002209950611     -3.683404696e-05     -3.877431035e-09     -2.795138927e-12     -2.106186203e-14     -6.774921466e-58    -8.698777018e-113       0.001268497065       0.000135939927       0.001493351702      -0.001313199744       0.003049005868     -3.157696802e-06       0.004126592254       -8.9330338e-08       0.007357518324     -5.882043097e-16       0.006770848375     -5.517763521e-26 
                   0                   16          -5.71627443         0.4727118292        0.06088858519       0.004069381283      1.352605239e-08      8.256584336e-13      1.216360251e-15      3.533159142e-73      1.36629841e-145         0.2131519369         0.1758000473         0.2067615538        0.04407861911         0.1629678629      5.364374588e-05         0.1355367869      1.042109203e-06        0.06933756284       1.14804634e-18        0.05505267085      2.187713405e-33 