ITEM: TIMESTEP
0
ITEM: NUMBER OF ENTRIES
588
ITEM: BOX BOUNDS pp pp pp
0 4.26
0 2.4768
0 30
ITEM: ENTRIES c_2[1] c_2[2] c_2[3] c_2[4] c_2[5] c_2[6] c_2[7] c_2[8] c_2[9] c_2[10] c_2[11] c_2[12] c_2[13] c_2[14] c_2[15] c_2[16] c_2[17] c_2[18] c_2[19] c_2[20] c_2[21] c_2[22] c_2[23] c_2[24] c_2[25] 
                   0                  102           4.98698135       -0.01825059015      -0.001973259915     -0.0004238235738     -6.177394641e-05     -1.148048443e-11     -3.863897801e-20     -1.494157349e-88    -1.956186705e-174      -0.004519245474      -0.003329432115      -0.004488494671      -0.002150176851       -0.00429736743     -0.0002427035275      -0.003602359585     -3.547181844e-07      -0.003074815964     -2.289239341e-10      -0.001980455371      7.516410691e-30      -0.001776752183       3.31228902e-55 
                   1                    2          -5.04122057         0.1466312444        0.01585381922       0.003405138001      0.0004963122048      9.223798819e-11      3.104382589e-19      1.200455162e-87     1.571664743e-173        0.03630930913        0.02666813632        0.03606239137        0.01726695442        0.03452249485       0.001953900004        0.02886721919      2.433064258e-06         0.0245833788      4.334202437e-09        0.01494273592      1.160920334e-29        0.01210300088      2.452743679e-55 
                   1                    1          15.04303548      -0.002093976269      -0.000226401415     -4.862727718e-05     -7.087616169e-06     -1.317210115e-12      -4.43323215e-21     -1.714317184e-89    -2.244425251e-175     -0.0005169393157     -0.0003803053757     -0.0005134423988     -0.0002451706923     -0.0004916439861     -2.766188831e-05     -0.0004117983455     -3.594802263e-08     -0.0003518988978     -7.123368214e-11     -0.0002320916619     -3.440572068e-31     -0.0002047783333     -1.069076017e-56 
                   0                   68           4.20907451                   -0                   -0                   -0                   -0                   -0                   -0                   -0                   -0      -0.001787301955      -0.006111246076      -0.001755439677      -0.007686029852     -0.0008963468571      -0.000890249036       0.003619563411       0.000562881427       0.005339413817      9.027512469e-05        0.02397052502      -2.05911716e-05         0.0347930509     -6.284138436e-07 
                   1                    1          -3.74486114         0.8137120297         0.1388539779        0.06751915073        0.02547174737      3.870552671e-06      3.272168883e-11      3.518983774e-53     3.615938187e-106         0.8146690078         0.5594331425         0.8006520157          0.425741291         0.7247052646        0.09985221454          0.526977572       0.005595057898          0.416144609       0.002397461159         0.2149489608      7.177475541e-05         0.1801424088      9.259007371e-07 
                   1                    1          14.95378256                   -0                   -0                   -0                   -0                   -0                   -0                   -0                   -0       0.003740220904       0.001817237169       0.003777825812      0.0003127695358       0.004028696253     -0.0003133975765       0.004934115642      2.076130294e-05        0.00548586379      6.670694237e-06       0.005199597207     -2.362522216e-06       0.005028678011     -7.210088358e-08 
                   0                   69           0.72698115         0.5157074585        0.08276093821        0.03664099558        0.01241753935      8.750013408e-07       2.93351441e-12      2.057717386e-57     2.226128401e-114         0.4422108079         0.3545378255         0.4357758284         0.2562024521         0.3980640306        0.04856611889         0.2877413159      0.0005347267933         0.2238477213      1.946964984e-05         0.1008921168      6.420296759e-14        0.06160955161     -2.691478821e-24 
                   1                    2          -2.56442057         0.5588151319        0.08967887479        0.03970379415        0.01345551392      9.481421716e-07      3.178725099e-12      2.229720733e-57     2.412209123e-114          0.478909496         0.3876421981         0.4719766445         0.2819901246         0.4314535723        0.05221953196         0.3143466629      0.0005530840055         0.2464589423      1.476907051e-05        0.08428851703       1.72627945e-13         0.0186265001      2.217848181e-23 
                   1                    1          15.04303548       -0.01321859921      -0.002121326063     -0.0009391809779     -0.0003182860227     -2.242800999e-08     -7.519175965e-14     -5.274335471e-59    -5.706006117e-116       -0.01121306463      -0.008754571038        -0.0110663351      -0.006121458759        -0.0102212176      -0.001093047561      -0.007843912569     -1.716536555e-05      -0.006422233115     -4.039859256e-07      -0.003603539194     -5.022657354e-15      -0.002462014944     -7.533217057e-25 
                   0                   70           2.17529292        0.01114147298       0.001141922358      0.0002184967417      2.764513581e-05      1.802382797e-12      1.849051034e-21      1.629667542e-93     9.804924216e-184       0.002258961066       0.001679836723       0.002245070843       0.001097277561       0.002157891357      0.0001104554878       0.001828551476      1.050641042e-07       0.001566334112      3.429638953e-10      0.0008146864672        8.8878389e-28      0.0004970801342      9.580768386e-50 
                   1                    3          -4.91519034        0.03354814109       0.003438447722      0.0006579165545      8.324239694e-05      5.427163217e-12      5.567686165e-21      4.907099513e-93     2.952365289e-183        0.00680402461        0.00506146886       0.006762109384       0.003304516881        0.00649901997      0.0003333267519       0.005505210381      3.146284991e-07       0.004715358143      9.909139064e-10       0.002495792102      1.643489752e-27       0.001573873068      1.166347754e-49 
                   1                    1          15.01411581     -0.0003305179269     -3.387575513e-05     -6.481826074e-06     -8.201081661e-07     -5.346867746e-14     -5.485311641e-23     -4.834498441e-95    -2.908684722e-185     -6.656229039e-05     -4.905509875e-05     -6.615354223e-05     -3.182777966e-05     -6.359131341e-05     -3.247249565e-06     -5.396817672e-05     -3.197690125e-09      -4.63808631e-05     -9.965490276e-12     -2.501718482e-05     -2.104187277e-29     -1.597888154e-05     -1.955732871e-51 
                   0                   71           2.84491282         0.2081292658        0.03395641188         0.0154245707       0.005383137778      4.679608941e-07      2.019136436e-12       1.04630657e-56     1.374582303e-112          0.185612173           0.15123768         0.1828159011         0.1105009006         0.1668793977        0.02067375628         0.1228327551      0.0004428325984        0.09764570241      0.0001664531055         0.0266044697      5.264035745e-05      -0.004923061746      1.287707555e-05 
                   1                    4          -3.69116804         0.7475756232         0.1219674017        0.05540322746        0.01933559206      1.680859997e-06       7.25249846e-12      3.758209031e-56     4.937336505e-112         0.6681356611         0.5384381761         0.6579835426          0.390869107         0.5995506891        0.07561248557         0.4330302135       0.001483387078         0.3383111209      0.0005102887049         0.1432229007      0.0001719610316        0.06738734204      4.883513023e-05 
                   1                    1          14.97278603      -0.002899347114     -0.0004730301835     -0.0002148721583     -7.498986229e-05     -6.518934579e-09     -2.812760318e-14     -1.457558563e-58    -1.914863447e-114      -0.000295656724     -0.0005495479267     -0.0002410484181     -0.0006889317699      7.102508777e-05     -0.0004041880987      0.0007467344568      4.506698601e-07      0.0008244935307      4.250784127e-06      0.0007221075699      3.283600825e-07      0.0008131504605     -3.395442559e-07 
                   0                   73           4.98698135         -0.180047907       -0.04505209007       -0.03542420956       -0.02313568362     -0.0001930629798     -2.136036388e-07     -1.599110162e-32      -1.80003448e-64        -0.4278866234        -0.3512268198         -0.411609386        -0.2702783204         -0.339150131        -0.1011012036        -0.1895330586       -0.01995660425        -0.1257422662       -0.01453008635        -0.1424826227      -0.001085877925        -0.2845929301     -0.0008735398902 
                   1                    2          -2.56442057         0.8733043895         0.2185206631         0.1718215903         0.1122173226      0.0009364327005      1.036063115e-06      7.756324123e-32      8.730887457e-64          2.069125443          1.788116973          1.988933313          1.407334853          1.634747523         0.4942111514          1.057627371        0.09300948593            0.8042762         0.0344559506           0.29020257       0.003890399568        0.08988251182        0.00222757285 
                   1                    1          15.04303548       -0.02065774539      -0.005169038739      -0.004064386607      -0.002654466079     -2.215102607e-05     -2.450775273e-08     -1.834734496e-33      -2.06526444e-65       -0.04758100452       -0.03688326646       -0.04583435188       -0.02639928979       -0.03903540569       -0.00991453964       -0.02767566295      -0.003023081988       -0.02220660686      -0.001894866932       -0.02569238813     -0.0001263391453       -0.03688041961     -0.0001002264298 
                   0                   75           7.10491302        -0.2664964173       -0.03544378439       -0.01142770242      -0.002689521813     -1.439934908e-08     -2.260265778e-15     -5.134510405e-71    -4.538745054e-141        -0.1316641924        -0.1029681633        -0.1304616546       -0.06963759661        -0.1231836451      -0.009300443416       -0.09874486816      -6.78121883e-05       -0.08138165898     -4.390764716e-06       -0.04127276743     -7.799687236e-12       -0.03254988633     -6.800644295e-19 
                   1                    4          -3.69116804         0.4509255712        0.05997269637         0.0193362571       0.004550808495      2.436443526e-08      3.824485324e-15      8.687854269e-71     7.679788818e-141         0.2229042826         0.1615202621         0.2208767612         0.1073513194         0.2086274441        0.01565994833         0.1676083843      0.0001282636677         0.1384633972       1.01143856e-05        0.07156210967      1.412357647e-11        0.05857490765      8.741969931e-19 
                   1                    1          14.97278603      -0.001748839465     -0.0002325940798     -7.499244153e-05     -1.764955018e-05     -9.449339019e-11     -1.483262715e-17      -3.36943908e-73    -2.978477742e-143     -0.0003033153957      -0.008040831079     -0.0002867648518      -0.007307464929     -0.0001795382871     -0.0001348755534      0.0002837735897      3.791522721e-07      0.0007533684231      6.643368466e-08       0.003381283828      -1.99710664e-14       0.006120688604     -1.378212026e-20 
                   0                   80           9.24698155        -0.1205150512       -0.01304795249      -0.002810606386     -0.0004110943528     -7.834944626e-11     -2.712317306e-19     -1.287876972e-87    -2.166421475e-173       -0.03015290312       -0.02192188279       -0.02995510306       -0.01407952923       -0.02871991349      -0.001566796039       -0.02416513638     -1.769452958e-06       -0.02070686197     -3.379940399e-09       -0.01253153907     -1.405587836e-29      -0.009776679921     -4.186062146e-55 
                   1                    2          -2.56442057        0.09026020099       0.009772313101       0.002105014226       0.000307890662      5.868011252e-11       2.03140025e-19       9.64560303e-88     1.622549514e-173        0.02259635463        0.01653381574        0.02244758637        0.01064012671         0.0215195255       0.001177490995        0.01810854111      1.398312058e-06        0.01552189891      2.177924889e-09       0.009578750971     -8.305975455e-31        0.00775048767     -1.868572839e-55 
                   1                    1          15.04303548      -0.002135077154     -0.0002311610457     -4.979346085e-05     -7.283058439e-06     -1.388059923e-12     -4.805214499e-21     -2.281637581e-89     -3.83809072e-175      -0.000532812712     -0.0003590988502     -0.0005292545921     -0.0002198961636     -0.0005070251787     -2.819424286e-05     -0.0004249608408     -3.152745682e-08     -0.0003629314255     -6.325473235e-11     -0.0002367599117     -3.277452229e-31     -0.0002198743197     -1.087280019e-56 
                   0                   42          -0.05092569         0.7091767466         0.1220831632        0.06014235769        0.02302895094      3.894688774e-06       3.74652031e-11      1.123147344e-52     4.151769392e-105         0.7282743681         0.5725372097         0.7158638079         0.4107580017         0.6481886721        0.08885066535         0.4681499574        0.00455477683         0.3674709379       0.002416264888         0.1835039973      0.0003018303988         0.1439676694      2.244618076e-05 
                   1                    1          -1.26806114         0.4123213341        0.07098017947        0.03496727337        0.01338922606       2.26440486e-06      2.178258467e-11      6.530073264e-53     2.413873696e-105         0.4210053933         0.3110688585         0.4139418804         0.2155044538         0.3761639732        0.04985504688          0.277932967       0.003229948624         0.2224856736       0.001532796496         0.1464059731      0.0001070876802         0.1473181585      2.111906152e-06 
                   1                    1          14.95378256                   -0                   -0                   -0                   -0                   -0                   -0                   -0                   -0       0.003965949622       -0.05328040249       0.003998103824       -0.04839736073       0.004229891603     -0.0002850572946       0.005527100391      1.434375419e-05       0.007210544921      1.106809187e-05        0.01908559486     -8.383904673e-06        0.03193279992     -1.340768176e-06 
                   0                   45          -1.41508738         0.2456575871         0.0282057839       0.006860928831       0.001160888909      6.208482187e-10      6.849618996e-18      1.841001542e-82     1.293243998e-163        0.07504010547        0.05497228307        0.07447936354        0.03568367523        0.07100472687       0.004415376049        0.05859909887      6.814491755e-06        0.04960087495      1.100919054e-08        0.03121480831      7.407411472e-30        0.02668171285      7.057414512e-55 
                   1                    4          -1.21436804         0.1058388087        0.01215214478       0.002955954028      0.0005001559309      2.674854729e-10      2.951081313e-18      7.931748101e-83     5.571796326e-164        0.03230236001        0.02344534344        0.03206335732        0.01520350368        0.03057967673       0.001884579867         0.0252481797      2.783477523e-06        0.02136685367      6.746247346e-09        0.01280266284       3.45825141e-29       0.009990141967       1.09379447e-54 
                   1                    1          14.97278603     -0.0008300519577        -9.530447e-05     -2.318237948e-05     -3.922525345e-06     -2.097782875e-12     -2.314416471e-20     -6.220556636e-85    -4.369739706e-166     -0.0001569447505     -0.0004423526646     -0.0001540423473     -0.0004358396666     -0.0001357962643     -2.310941098e-05     -6.470432497e-05     -3.249278875e-08     -4.721583915e-07     -4.673180073e-11      0.0003338400901     -1.014830142e-32      0.0006530695398     -3.367511418e-58 
                   0                   34           4.20907451                   -0                   -0                   -0                   -0                   -0                   -0                   -0                   -0        0.00210424281       -0.09078389866       0.009923698075        -0.1282339565        -0.0194685787       0.008140456618         0.1738549934       -0.06428796946         0.2683800099        -0.1385031728         0.3428449634       -0.01854920809         0.4371599272      -0.001603808802 
                   1                    1          -1.26806114         0.5572350607         0.2433932895         0.2899488464         0.3048959963        0.08916197783       0.007813167168      8.180428237e-13      7.761829956e-26          3.236124036          3.274108436          2.967921606          2.882817916          1.974565493          1.619103309         0.8625504086         0.6302594884         0.5177651342         0.4062166243         0.0620781685         0.1631250087        0.02342623633         0.1510555869 
                   1                    1          14.95378256                   -0                   -0                   -0                   -0                   -0                   -0                   -0                   -0        0.05448592986        0.02042854644        0.05860039568      -0.004053810728        0.06392777583       -0.01372203431        0.08710262907       -0.01515221113          0.101025328       -0.02043925564         0.0691566283      -0.003546390896        0.05898838475     -0.0003190878868 
                   0                   35           0.72698115          0.820173742         0.2157501362         0.1783626669         0.1233618643       0.001573954296      2.929971272e-06      1.387718255e-29      2.781127568e-59          2.149378703          1.845534032          2.060649017          1.451960416          1.683250828         0.5336333834          1.053621641         0.1168220013         0.7805632543         0.0608998174         0.3817913277         0.0063197698         0.3490019134       0.003568044121 
                   1                    2          -0.08762057         0.3053450481        0.08032229314        0.06640319524        0.04592677438      0.0005859723687       1.09080817e-06      5.166379703e-30      1.035394683e-59         0.8012062517         0.7337927534         0.7689439722         0.5938554988         0.6291676188          0.195909156         0.4389169821        0.04011144161         0.3522100332       0.008269205391       -0.04099597315      0.0004276432275        -0.3601497598      0.0006318738993 
                   1                    1          15.04303548       -0.02102267051      -0.005530101481       -0.00457178691       -0.00316200787     -4.034355267e-05     -7.510094201e-08     -3.556995565e-31     -7.128578435e-61       -0.05356661181       -0.04281675609       -0.05151319488       -0.03083349714       -0.04486618529       -0.01042365143       -0.03549103906      -0.004429192283       -0.03134389408      -0.003552129759       -0.02036258839     -0.0004385153993       -0.01291231466     -0.0002603047898 
                   0                   36           2.17529292         0.4430473811        0.09879465514        0.06846323341        0.03870351371      0.0001114065965      3.353158751e-08      7.856130173e-38       2.08281775e-75         0.8273620152         0.8585535012         0.8012864485         0.6416371018         0.6856838898          0.161718976         0.4300532134        0.02689133971         0.3105455089        0.02158394999         0.1450237731        0.01468331456         0.1187568955       0.008453533036 
                   1                    3          -2.43839034         0.7945056876         0.1771659618         0.1227733887        0.06940603439      0.0001997826379      6.013134966e-08      1.408819998e-37      3.735064508e-75          1.480915755          1.119205815          1.433686685         0.8679366652          1.232981561         0.2878366283         0.7715456606        0.04810589037         0.5527611341        0.04022659443         0.2504557097         0.0366917539         0.2310419585        0.03404294014 
                   1                    1          15.01411581       -0.01314324436      -0.002930797809      -0.002030999492      -0.001148161032     -3.304937988e-06     -9.947329949e-10     -2.330564246e-39     -6.178793467e-77       -0.01814749174         0.3703010741       -0.01703270818         0.2494119577       -0.01693300107      -0.003959491631       -0.01198071333      -0.000856539121       -0.01131266423      -0.001342544514       -0.01685282799      -0.005854551909       -0.02675800172       -0.01013686471 
                   0                   37           2.84491282          0.321223452         0.1223851452          0.135228811          0.130421647        0.01990752727       0.000782871564      1.369107677e-16      4.395951369e-33          1.602764947          1.229051507          1.478794929           1.11353604          1.012530116         0.6631736364         0.4522972022         0.2561036089         0.2609864844         0.1897463161        0.07596936374        0.02789624461        0.04996217261       -0.08017261147 
                   1                    4          -1.21436804         0.5705766176         0.2173879328         0.2402016326         0.2316628558         0.0353609598       0.001390584051      2.431892262e-16      7.808355984e-33          2.742170155          2.819690508          2.504134114          2.404458409          1.829822647           1.15368393         0.8291824184         0.4652905013          0.471577832         0.3756141544        0.05647800174         0.2975658771        0.04208437433         0.3140966999 
                   1                    1          14.97278603      -0.004474806966      -0.001704887662      -0.001883806496      -0.001816840243     -0.0002773220359     -1.090580126e-05     -1.907237013e-18     -6.123785075e-35        0.06956136474        -0.5766349517        0.08351375846        -0.3954537563        0.02245128373        -0.0124872711         0.0267266623       -0.01451730831        0.02281773507       -0.02800691444         0.0208359586        -0.1271673366        0.03515574872        -0.2261849494 
                   0                   38           8.46907471        -0.7091767466        -0.1220831632       -0.06014235769       -0.02302895094     -3.894688774e-06      -3.74652031e-11     -1.123147344e-52    -4.151769392e-105        -0.7233382417        -0.5776103255        -0.7107560531        -0.4143810725        -0.6437473677       -0.08853944078        -0.4719725762      -0.005862646491          -0.37673658      -0.003048446405        -0.2046165946     -0.0002266422223        -0.1687331728     -8.653889036e-06 
                   1                    1          -1.26806114         0.4123213341        0.07098017947        0.03496727337        0.01338922606       2.26440486e-06      2.178258467e-11      6.530073264e-53     2.413873696e-105         0.4227470357         0.3137977432         0.4154070449         0.2214183891          0.375378006        0.05256200291         0.2684389842        0.00272505321         0.2096978712       0.001673094606         0.1000257089      0.0002226548033         0.0853001862      1.559804627e-05 
                   1                    1          14.95378256                   -0                   -0                   -0                   -0                   -0                   -0                   -0                   -0       0.004071592437        -0.0138225756       0.004131741936       -0.01570395206       0.004500597337     -0.0004701122755       0.006000640098     -9.423346518e-06       0.007462865369      1.081865955e-06        0.01416453457     -2.335672561e-06        0.02342189457     -2.715589732e-07 
                   0                   39           4.98698135        -0.1256420324        -0.0943372153        -0.1344501059        -0.1738079071        -0.2418018905        -0.1452429868     -7.179309636e-05     -1.492371231e-09         -1.415877503         -1.668873537         -1.182958128         -1.591840695        -0.5288358487         -1.142168427       -0.06742100577        -0.4565408073        0.01341135404         -0.236452767        0.09581971694         -0.145149248         0.0997320573        -0.2839506841 
                   1                    2          -0.08762057         0.2093788422         0.1572102627         0.2240572439         0.2896458905          0.402955913         0.2420432703      0.0001196411353       2.48699384e-09          2.455149112          2.682441113          2.051207513          2.561605731         0.8224035838          1.946830243        0.07454361465         0.9486048432       -0.00817982793         0.6242179831       -0.04067168537         0.1831551313       -0.03045410062        0.04051202813 
                   1                    1          15.04303548       -0.01441550285       -0.01082375356       -0.01542609465       -0.01994180078       -0.02774307113       -0.01666441277     -8.237160488e-06     -1.712267887e-10        -0.0216457862         0.1548095937        0.03416461876         0.2048531956       -0.08174570749       -0.09989788519        -0.2254964569        -0.1790808321        -0.2869388937        -0.1762182008        -0.3238042116        -0.2332298667        -0.3806930095        -0.3593728149 
                   0                   40           6.43529312        -0.4735188071         -0.102056305       -0.06793216245       -0.03667730389     -7.532751628e-05     -1.501607656e-08     -1.322331367e-39     -5.814769084e-79        -0.8223691252         -0.648810599        -0.7985090257        -0.4827146079        -0.6848452842        -0.1548228249        -0.4762692011       -0.02053251957        -0.3733971274      -0.003713930648        -0.1813942674      3.672342869e-07        -0.1610780321      3.002196995e-12 
                   1                    3          -2.43839034         0.7757478355         0.1671949594         0.1112906757        0.06008703071      0.0001234062023      2.460026659e-08      2.166325139e-39      9.526114831e-79          1.346525584          1.104519342          1.307535571         0.8275399416          1.122329328         0.2525200062         0.7830532754        0.03393696202         0.6188453023       0.007801125935         0.3050507204       5.06178611e-07         0.2446747373       2.75100529e-12 
                   1                    1          15.01411581       -0.01283293942      -0.002765850819      -0.001841044775     -0.0009939998411     -2.041467918e-06     -4.069540597e-10     -3.583679904e-41     -1.575873615e-80       -0.01821821367        -0.1033476505       -0.01754570224        -0.1015251787       -0.01437700277      -0.004335714277      -0.005750242642     -0.0008328948746       0.002378668973     -0.0002827858134        0.05078061775     -1.955898537e-08         0.1027488742     -1.155462767e-13 
                   0                   41           7.10491302        -0.6773232438         -0.174339176         -0.141068234       -0.09520224001      -0.001012633069     -1.508269718e-06     -1.207552665e-30      -2.62547693e-61         -1.690433975         -1.478761919         -1.620071296          -1.17313075         -1.319898835        -0.4238052747        -0.8611762904       -0.08932125107        -0.6658243753       -0.03707105118        -0.1955606384      -0.006800989248        0.05921909628       -0.00515494099 
                   1                    4          -1.21436804         0.5667535051           0.14587915         0.1180395281        0.07966093546      0.0008473256254      1.262051992e-06      1.010425542e-30      2.196880538e-61          1.413118767          1.213506203          1.353799788         0.9556688432          1.105493046          0.353570883         0.6771082658        0.08029765688         0.4973829345         0.0482331282         0.2647449439       0.008029661983         0.2979206498       0.006320168792 
                   1                    1          14.97278603      -0.004444823805      -0.001144072533     -0.0009257373789     -0.0006247492413     -6.645240085e-06     -9.897775113e-09     -7.924368285e-33     -1.722926603e-63       0.004062505398        -0.0080185916       0.004916446484       -0.01500547895       0.008587262599      -0.005232132405        0.02068025928       -0.00121880693        0.03315115242     -0.0007277415254        0.05979191041     -0.0002566397906        0.04390265231     -0.0004059880481 
                   0                   46           9.24698155        -0.7142795712        -0.1120397749       -0.04784487982       -0.01555814256     -8.163542291e-07     -1.921619378e-12     -8.185556606e-59    -2.681351169e-117        -0.5746545147        -0.4605825465        -0.5667658241        -0.3317145767         -0.520247899       -0.05981551858        -0.3820866567     -0.0005182284758        -0.3009279182     -1.560252378e-05        -0.1232064712     -1.046389675e-13       -0.05453768336     -7.332797105e-24 
                   1                    2          -0.08762057         0.1837991552        0.02883019032        0.01231149377       0.004003437273      2.100651113e-07      4.944730783e-13      2.106315859e-59     6.899680453e-118         0.1482649904          0.119775761         0.1461945922        0.08707862632         0.1338773768        0.01580466587        0.09579499704      0.0001488350691          0.073105714      7.365921646e-06        0.03168544955     -8.371794256e-15        0.01205052971     -4.526429684e-24 