ITEM: TIMESTEP
0
ITEM: NUMBER OF ATOMS
4
ITEM: BOX BOUNDS pp pp pp
0.0000000000000000e+00 4.2600002000000003e+00
0.0000000000000000e+00 2.4767999999999999e+00
0.0000000000000000e+00 3.0000000000000000e+01
ITEM: ATOMS id type c_1[1] c_1[2] c_1[3] c_1[4] c_1[5] c_1[6] c_1[7] c_1[8] c_1[9] c_1[10] c_1[11] c_1[12] c_1[13] c_1[14] c_1[15] c_1[16] c_1[17] c_1[18] c_1[19] c_1[20] c_1[21] c_1[22] 
1 1          13.95298089           12.5930341          8.791630708           6.13039874          1.259627883         0.4102320983      0.0002521496545      3.450689295e-08          48.56911914          43.39621144          45.92687796          35.37791606          35.98473459          14.84530368          21.34433586          4.353390321          15.20725797          2.621356553          5.065519139         0.9990845556           3.29683187         0.8701728041 
2 1          13.95711538          12.59756168           8.79205857          6.121593923           1.22286611         0.3813314791      0.0002020165895      2.926035528e-08          48.60866019          43.36568666          45.99341085          35.31050305          36.08179665          14.74765174          21.48032397          4.288318946          15.34287732          2.562654217          5.156719984         0.9395416732           3.36253734         0.7659017582 
3 1          13.96460146          12.60559138          8.785812027          6.087283807          1.118552985         0.3104788063      5.179075878e-05      1.063409643e-09          48.64268602          43.30122659          46.09711885           35.1940794          36.34368982          14.43770995          21.64434453          4.108116395          15.41660813           2.47254319          5.074075278         0.8923773409          3.146648986         0.7154915984 
4 1          13.96402663           12.6047721          8.791695683          6.105956989          1.167138101         0.3416206955      0.0001019238282      6.309947312e-09          48.62090985          43.35895978          46.03205706          35.30037129          36.22728911           14.5962709          21.47549752          4.226271589          15.23599883          2.581329805          4.932697794         0.9817988961          3.073207444         0.8121618171 
