ITEM: TIMESTEP
0
ITEM: NUMBER OF ENTRIES
582
ITEM: BOX BOUNDS pp pp pp
0 4.26
0 2.4768
0 30
ITEM: ENTRIES c_2[1] c_2[2] c_2[3] c_2[4] c_2[5] c_2[6] c_2[7] c_2[8] c_2[9] c_2[10] c_2[11] c_2[12] c_2[13] c_2[14] c_2[15] c_2[16] c_2[17] c_2[18] c_2[19] c_2[20] c_2[21] c_2[22] c_2[23] 
                   0                   78          -2.10550829         0.4606325217        0.09806897372        0.03414135669      6.192736508e-05      3.552154987e-07      1.060911363e-08      2.795898661e-40      2.723683285e-80          0.784540385         0.7248484786         0.7145798079         0.2828536553         0.4242711598        0.01967785614         0.3038394679        0.01680944155         0.1302932833        0.01753953211         0.1178603847        0.01782039705 
                   1                    3          -2.51266364         0.7822234354         0.1665358956        0.05797716848      0.0001051619979      6.032094449e-07      1.801587365e-08      4.747857246e-40      4.625224656e-80          1.329520184          1.146096037          1.207556539         0.4805732062         0.6981571945        0.03353731202         0.4938730267        0.02744091734         0.2239577638        0.02030610311         0.2011864218         0.0140694467 
                   1                    1          14.95006065        0.01430870138       0.003046332148         0.0010605384      1.923659604e-06       1.10341156e-08      3.295525862e-10      8.684944536e-42      8.460620764e-82        0.02413096861        -0.2373581944        0.02241063602       -0.01532182933        0.01588103111      0.0006009999395        0.01401045549      0.0006864744757        0.01893985079        0.00195675693        0.03021685037       0.002965526625 
                   0                   79          -1.37069673         0.2141897805        0.03431017064       0.005116246932      3.521295883e-07      1.867064801e-10      1.147650731e-12      6.435231909e-58     5.264073798e-115         0.1837244578         0.1605393325         0.1748348185        0.05024400898         0.1259418924      0.0002001306433         0.1022707741      3.977071483e-06        0.02881357597      5.772416349e-14      -0.003958778444      3.062489197e-24 
                   1                    4          -3.73205384         0.7278871084         0.1165972104        0.01738668473      1.196651807e-06      6.344898417e-10      3.900093507e-12      2.186902819e-57     1.788904889e-114         0.6228686976         0.5435685228         0.5908257493         0.1767396078         0.4070770758      0.0007253296332         0.3166526207       2.30553854e-05         0.1230290143      5.302232152e-14        0.05440758141      9.016586444e-25 
                   1                    1          15.00269145       0.002254156109      0.0003610838976      5.384392874e-05      3.705849368e-09      1.964918922e-12      1.207799878e-14       6.77250674e-60     5.539967445e-117       0.000523683928      0.0006097329451      0.0004003140131      0.0004964229651     -0.0002057386342      2.875965368e-06     -0.0003747514647      1.922008914e-08     -0.0007045967196      1.348752082e-15     -0.0007790203449       8.14544278e-26 
                   0                   68           0.08045256                   -0                   -0                   -0                   -0                   -0                   -0                   -0                   -0      -0.001218097104      -0.008054123961      -0.000528518936      -0.008112654928       0.006899178743      0.0004518581297        0.01119175335      0.0001142747838        0.03883967171     -4.887826132e-05        0.05293860069     -1.645046752e-05 
                   1                    1          -3.75417271         0.8137120297         0.1388539779        0.02547174737      3.870552671e-06      3.640260861e-09      3.272168883e-11      3.518983774e-53     3.615938187e-106         0.8196978843         0.5963933731         0.7736921345         0.2195579506         0.5439425202       0.004653779043         0.4388366389       0.002344612192         0.2406276766      0.0004330093012         0.2037817388      5.401463613e-05 
                   1                    1           15.0179635                   -0                   -0                   -0                   -0                   -0                   -0                   -0                   -0      -0.002583449586      -0.001606017158      -0.002666213266      0.0003384584526      -0.003165974421     -5.628763932e-06       -0.00345191167       -5.5242412e-06       -0.00352457987      3.056977241e-06      -0.003753074636      1.028856253e-06 
                   0                   69            0.6430401       -0.02305696691      -0.002626170195     -0.0001042976838     -4.868311943e-11     -7.616844172e-16     -4.605690962e-19     -3.864161939e-84    -6.428371135e-166      -0.006941224286      -0.005683640607      -0.006756983285      -0.001255303826      -0.005499846754     -1.031854804e-06      -0.004722404065     -1.768623715e-08       -0.00324973855     -6.281503449e-19      -0.003431804915     -3.110424821e-32 
                   1                    2          -4.92208194         0.2508826195        0.02857533085       0.001134862024      5.297205213e-10        8.2878803e-15      5.011447593e-18      4.204590627e-83     6.994704013e-165        0.07542401795        0.06136281386        0.07349228834        0.01376752394        0.05984755856      7.187435671e-06        0.05137568011      7.428492429e-08        0.03330521717      3.427590756e-18        0.02848099034      4.875781121e-31 
                   1                    1          14.98277777       0.001442044401      0.0001642477105      6.523056202e-06      3.044772545e-12       4.76377814e-17      2.880522356e-20      2.416750265e-85     4.020475304e-167      0.0004018873849      0.0003279432179      0.0003910728301       7.22120124e-05      0.0003158998816      4.934093495e-08      0.0002705594077      3.464563314e-10      0.0002034595452      1.637374942e-20      0.0002142690382      2.948189365e-33 
                   0                   70           2.15449191        -0.4434934791       -0.09627526255       -0.03524500237      -7.78095831e-05      -5.15432405e-07     -1.694027297e-08     -3.009855127e-39     -3.181106953e-78        -0.7923972419        -0.6511817219        -0.7186670889        -0.2488710897        -0.4766259021       -0.02138817317        -0.3874277725      -0.006315287077         -0.234141494     -2.857846426e-06        -0.2500693638       -1.0171444e-10 
                   1                    3          -2.51266364         0.7937593475         0.1723123184        0.06308108553      0.0001392626652      9.225147804e-07      3.031949883e-08      5.387002864e-39      5.693507343e-78          1.413422573          1.264448387          1.279170864         0.4955915966         0.8293498605        0.03873418017         0.6516118305       0.009906325684         0.2703975883     -1.423722933e-07         0.1780891405     -3.047628425e-11 
                   1                    1          14.95006065        0.01451972027       0.003151996471       0.001153901014      2.547440795e-06      1.687495914e-08      5.546147495e-10      9.854091786e-41      1.041476037e-79        0.02586576251        0.02358879297        0.02375743952        0.01052856005        0.01669238811      0.0008668855487        0.01295820526      0.0003312893792      -0.003539028681      1.391057319e-07       -0.01769052276      4.877723644e-12 
                   0                   71           2.88930347         -0.263445448       -0.03523237276      -0.002731847482     -1.586203623e-08     -1.434712016e-12     -2.738410635e-15     -1.311880654e-70    -2.939425864e-140        -0.1333521347        -0.1055023542        -0.1290788317       -0.02763272048         -0.100676943     -5.144241382e-05       -0.08327155444      -1.17065169e-06       -0.04195352659      -2.84285114e-18       -0.03604336891     -1.238296425e-32 
                   1                    4          -3.73205384         0.4625294461        0.06185724589       0.004796286717      2.784887304e-08      2.518914482e-12        4.8078096e-15      2.303260265e-70      5.16073072e-140         0.2337382104         0.1962948943         0.2261428146        0.05118141636         0.1755124507      9.098607682e-05         0.1443420166        2.0953753e-06        0.06847691746      2.852564747e-18        0.05223758314      2.540255286e-33 
                   1                    1          15.00269145       0.001432383627      0.0001915625199      1.485337338e-05      8.624374103e-11      7.800696565e-15      1.488905801e-17      7.132848124e-73     1.598200125e-142      0.0003267573697       0.007381179316      0.0002842948415       0.001273507098     -6.789160908e-05     -1.045945104e-07     -0.0003570444639     -1.277747943e-09      -0.001739331259      8.013372847e-20      -0.003185343628      3.938545832e-34 
                   0                   50          -5.63069693         0.1886247272        0.02098179329      0.0007489529772      2.321234427e-10      2.745806652e-15       1.38522495e-18      3.652554947e-85     8.490213405e-169        0.05157031925        0.04251078694        0.05024337308       0.009755225659        0.04076520895       5.95348299e-06        0.03471497383      8.693930825e-08        0.02120715255      3.517722144e-19        0.01719485747      2.227952486e-33 
                   1                    4          -1.25525384        0.08107186817        0.00901808159       0.000321903803      9.976783756e-11       1.18016168e-15      5.953767364e-19      1.569886714e-85     3.649136951e-169        0.02218373319        0.01831828488        0.02162319128       0.004195155218        0.01757598931      2.092427966e-06        0.01497962596      2.891915711e-08       0.008988040392       2.05864348e-19       0.006896544864      2.238730992e-33 
                   1                    1          15.00269145      0.0005043969293      5.610691803e-05      2.002757472e-06      6.207158172e-13      7.342496735e-18       3.70419733e-21      9.767210939e-88      2.27034792e-171      0.0001012181944      0.0001260267489      9.640585843e-05      5.188121138e-05      5.932057557e-05      1.135656374e-08      3.075503025e-05      5.148038047e-13     -0.0001031707591      2.363566848e-21     -0.0002114990849      3.930168644e-35 
                   0                   42          -4.17954764         0.7091767466         0.1220831632        0.02302895094      3.894688774e-06      3.958702083e-09       3.74652031e-11      1.123147344e-52     4.151769392e-105         0.7269565815         0.6308885204         0.6819492448         0.2149968438         0.4571070194       0.004733921947         0.3564600184       0.002149296379         0.1679173617      4.084166957e-05         0.1306479613      2.819005157e-07 
                   1                    1          -1.27737271         0.4123213341        0.07098017947        0.01338922606       2.26440486e-06      2.301622737e-09      2.178258467e-11      6.530073264e-53     2.413873696e-105           0.42098479         0.3418055273         0.3953270483          0.113878776         0.2748390083       0.003394946492         0.2207865701       0.001295817693         0.1349107596      6.693033802e-06         0.1257230632     -5.489638559e-08 
                   1                    1           15.0179635                   -0                   -0                   -0                   -0                   -0                   -0                   -0                   -0      -0.002839185542         0.0346597855      -0.002972468279        0.00829355753      -0.004200676726     -2.820456422e-06      -0.005527573123     -1.243047899e-06       -0.01520440912      6.111318424e-07       -0.02685746313      7.841215798e-09 
                   0                   43           -3.6169601         0.5280180516        0.08312780803        0.01168899794      6.433055963e-07      2.902780138e-10      1.603377866e-12      1.074079617e-58     6.191512685e-117         0.4295450519         0.3751347358         0.4072945624         0.1231011155         0.2766646521      0.0004318552738          0.213308221      1.775841343e-05        0.08832806351      5.556855564e-14        0.03988621924     -1.833623737e-24 
                   1                    2          -2.44528194         0.5204916095        0.08194289279        0.01152238136      6.341358296e-07      2.861403509e-10      1.580523097e-12      1.058769538e-58     6.103258009e-117          0.422528642         0.3689470436         0.4008184379         0.1199858822         0.2758995756      0.0004004436003         0.2159943631       1.28217901e-05        0.08167637789      1.512633847e-13        0.03070657412      1.604382825e-23 
                   1                    1          14.98277777       0.005024784169      0.0007910701016      0.0001112361436      6.121896336e-09      2.762375952e-12      1.525824296e-14      1.022127603e-60     5.892036233e-119       0.003261405783       0.003122848023       0.003031232806       0.001379602335       0.001574399823      4.821600217e-06      0.0006521280738         7.438348e-08      -0.001738385766        3.1070759e-15      -0.001676763787      4.595633345e-25 
                   0                   44          -2.10550829         0.4949904833         0.2127110247         0.2618085382        0.07131953294        0.01643263322       0.005726363299      2.983357436e-13      1.183280808e-26          2.967094063          2.962924651          2.179750677           1.94786837         0.6589436169         0.5525682382         0.2850889424         0.3845206744        -0.1394092599           0.14505219        -0.1778391304         0.1408793778 
                   1                    3          -0.03586364         0.2797201306         0.1202034335         0.1479485384        0.04030281337       0.009286114515       0.003235979567      1.685901365e-13      6.686743956e-27          1.694931056          1.627664443          1.242015515         0.9983971979         0.6153616538         0.2220748862         0.5639846716        0.07076874013         0.3736165757        0.05776406581         0.3586594016        0.03377236821 
                   1                    1          14.95006065        0.01537596821       0.006607476436       0.008132600316       0.002215410009      0.0005104495028      0.0001778789351      9.267250712e-15      3.675644019e-28         0.0536130173       0.007998193464        0.05519603097         0.0181005264        0.06781560894        0.02879167699        0.07357714268        0.02999856209        0.07683765685        0.04970998879        0.09349270664        0.09094525883 
                   0                   45          -1.37069673         0.3442043675         0.1272180479         0.1301960129        0.01689501616       0.002249093783      0.0005439933458      1.929153643e-17      8.433534813e-35          1.610883766           1.53819636           1.25436546         0.9304779146         0.5465251849         0.2674233814         0.3295092602         0.2317696724         0.0386959888         0.2739555922        0.03954809653         0.3513359146 
                   1                    4          -1.25525384         0.5822364188         0.2151947726         0.2202321279         0.0285786429       0.003804438391      0.0009201880261      3.263245951e-17      1.426568507e-34          2.793164318          2.735112277          2.155464424          1.634123392         0.8020910751         0.4270684743         0.4319705956         0.3245454366        0.06657795118         0.1112487412        0.03853392328       0.005114608957 
                   1                    1          15.00269145       0.003622443498       0.001338856313       0.001370196734      0.0001778049532      2.366970301e-05      5.725044028e-06      2.030261883e-19      8.875542043e-37       -0.01399056312          0.389308025       -0.01674874688        0.04297406222       -0.01791091253       0.007306040478       -0.01897127997        0.01244061095       -0.02219969992        0.04515133517        -0.0375148203        0.07169998114 
                   0                   34           0.08045256                   -0                   -0                   -0                   -0                   -0                   -0                   -0                   -0        0.01518624022        -0.1240816156        0.02941510197        -0.1579882693         0.2554050688       -0.06047470118         0.4172197459        -0.1521983882         0.6988661774        -0.1686724366         0.7066515273       -0.04489926714 
                   1                    1          -1.27737271         0.5572350607         0.2433932895         0.3048959963        0.08916197783        0.02165100651       0.007813167168      8.180428237e-13      7.761829956e-26          3.308693218          3.376079401          2.475933306          2.171546062         0.9452573326         0.6733043987         0.6149143108         0.4829402931         0.1144825772         0.2027012099        0.04998406718         0.1570827965 
                   1                    1           15.0179635                   -0                   -0                   -0                   -0                   -0                   -0                   -0                   -0       -0.03729487259       -0.01970064105       -0.04303560133         0.0126474246       -0.05623683042       0.008006202772        -0.0648598628        0.01186920667       -0.05654844548         0.0111198863       -0.04780159996       0.002844097151 
                   0                   35            0.6430401        -0.1329198365       -0.03533596197       -0.02065200943     -0.0002873669525     -7.363316089e-06     -5.949622784e-07     -6.578040191e-30     -3.802268493e-59        -0.3593313183        -0.2990517198        -0.3103431517        -0.1462579291        -0.1379747096       -0.02361850139       -0.08139725554       -0.02663865543        -0.1048314849      -0.007393311454        -0.3719064258      -0.003453719614 
                   1                    2          -2.44528194         0.8611178178          0.228923141         0.1337935237       0.001861699575      4.770305811e-05      3.854448158e-06      4.261566796e-29      2.463290081e-58          2.326339713          2.121002167          2.010194103         0.9721665372          1.171260813         0.1396296206         0.9113186199        0.07475137745         0.4184685828        0.01205652263          0.197569759        0.00748367827 
                   1                    1          14.98277777       0.008313162209       0.002210005606       0.001291631926      1.797269808e-05      4.605214894e-07      3.721053276e-08      4.114082336e-31      2.378040448e-60        0.01566962868        0.01230768463        0.01284282495        0.00629760634       0.006298458567       0.001943058746       0.004373749547        0.00181228229       0.009304750477      0.0004605686622        0.02449257858      0.0002157809281 
                   0                   36           2.15449191        -0.4609478944        -0.2073046367        -0.2677327098       -0.08853387291       -0.02354633309      -0.009027704446     -3.168852281e-12     -1.363460909e-24         -2.966948333         -2.909205497          -2.14418681         -1.872541892        -0.8694452829        -0.5406125005        -0.6002426879        -0.2944257587        -0.2584146063        -0.1034772963        -0.3147597271       -0.09914446062 
                   1                    3          -0.03586364         0.2745390309         0.1234699513         0.1594607103        0.05273047987        0.01402411757       0.005376870705      1.887357866e-12      8.120727766e-25          1.731081878          1.798944663          1.225702465          1.272843817         0.1854717777         0.3881669361       -0.05538735362         0.3580698514        -0.3227729601         0.1435605661        -0.4788932272         0.1030673073 
                   1                    1          14.95006065        0.01509116774       0.006787034032        0.00876541423       0.002898547847      0.0007708933409      0.0002955618276      1.037463928e-13      4.463892238e-26         0.0534512961       0.004853105453        0.05433581223         0.0202975551        0.06339228914         0.0321794977        0.06774469751        0.03463827604         0.1055313348        0.05561849128         0.1424656356        0.09521865312 
                   0                   37           2.88930347        -0.6605800608        -0.1728963372       -0.09782234328      -0.001197121283      -2.79066071e-05     -2.117412707e-06     -6.671672716e-30     -8.034950751e-60         -1.733665535         -1.601490815         -1.502838154        -0.7364850821        -0.8854985211       -0.09334119765        -0.6741669654       -0.03415324368        -0.1224718286      -0.004178811509         0.1449675478      -0.002150489431 
                   1                    4          -1.25525384          0.577287105         0.1510957291        0.08548786241       0.001046175507      2.438784544e-05      1.850426805e-06      5.830437302e-30      7.021818751e-60          1.508484735          1.360978657          1.302980128         0.6406014867         0.6982189738        0.08190417064         0.5008008319        0.04292704809         0.3399954963       0.005192873788         0.4260551719       0.003256765852 
                   1                    1          15.00269145       0.003591650835      0.0009400575505      0.0005318714896      6.508888039e-06      1.517314776e-07      1.151261985e-08      3.627466269e-32      4.368696436e-62      -0.001220231319       0.006747949726       -0.00316841765        0.01105745607       -0.01353932902      0.0009055315664       -0.02263074974      0.0005340183251       -0.05121217321      0.0001366820268        -0.0564649925      0.0001757517759 
                   0                   38           4.34045276        -0.7091767466        -0.1220831632       -0.02302895094     -3.894688774e-06     -3.958702083e-09      -3.74652031e-11     -1.123147344e-52    -4.151769392e-105        -0.7253642893        -0.6083337842        -0.6817828421        -0.2024891415        -0.4674022838      -0.005308705048        -0.3683871159      -0.002239923537        -0.2128957822     -0.0001297607374        -0.1919211245     -3.820851899e-06 
                   1                    1          -1.27737271         0.4123213341        0.07098017947        0.01338922606       2.26440486e-06      2.301622737e-09      2.178258467e-11      6.530073264e-53     2.413873696e-105         0.4225681307         0.3759036799         0.3963450112         0.1282136166         0.2648239149       0.002451112265         0.2057973554       0.001143766115        0.08460791328      0.0001148598707        0.04852672421      5.814147654e-06 
                   1                    1           15.0179635                   -0                   -0                   -0                   -0                   -0                   -0                   -0                   -0      -0.002872989563        0.03526884197      -0.003040519718       0.008555965659      -0.004443324401      3.649694029e-06      -0.005738206543     -7.559670114e-07       -0.01505429072      7.326771631e-07       -0.02730177683      6.678192958e-08 
                   0                   39            4.9030403        -0.2542095381       -0.02998614781      -0.001388898113     -1.162504399e-09     -2.716529786e-14     -2.132736087e-17     -2.774834775e-80     -2.38960947e-159       -0.08557020592       -0.07054216406       -0.08312435158        -0.0170111685       -0.06595767588      -1.00389728e-05         -0.055448649      -4.89999138e-08       -0.03391533102     -1.573729224e-22       -0.02781740411     -2.201319515e-40 
                   1                    2          -2.44528194         0.1921208902        0.02266227088        0.00104967085      8.785719912e-10      2.053039098e-14      1.611832344e-17       2.09710356e-80     1.805966457e-159        0.06465938484        0.05341604098        0.06279864783        0.01281638827        0.04983435509      7.173794225e-06        0.04196016081       2.20581567e-08        0.02663228328      1.377550053e-22         0.0231958361      4.706565383e-40 
                   1                    1          14.98277777       0.001854719635      0.0002187797418      1.013343803e-05      8.481663397e-12      1.981987446e-16      1.556049992e-19      2.024526923e-82     1.743465504e-161      0.0005593427712      0.0005280603983      0.0005382700186      0.0001724858492      0.0003815504948      7.746994405e-08      0.0002733035865      4.023581693e-10     -4.468256602e-05      1.284476533e-24     -0.0002356370494      3.821783517e-42 
                   0                   40           6.41449211       -0.03422955245      -0.003507512683     -8.482173885e-05      -5.50446861e-12     -2.221904158e-17     -5.616261007e-21     -4.766401275e-93    -2.747007279e-183      -0.006917307707      -0.005737292833      -0.006761832445      -0.001289238583      -0.005587593765     -2.990083839e-07      -0.004770198265     -1.213003305e-09      -0.002457002858     -8.241713075e-26      -0.001558581364     -7.366353342e-46 
                   1                    3          -0.03586364       0.006675590726      0.0006840498183      1.654229088e-05       1.07350453e-12      4.333250578e-18      1.095306751e-21      9.295635458e-94     5.357328684e-184       0.001349909571       0.001121002608       0.001319497066      0.0002512830365       0.001089723987      5.776762426e-08      0.0009301700143      2.247261772e-10      0.0004932573055      5.480507422e-27      0.0003276776085      2.330484935e-47 
                   1                    1          14.95006065      0.0003669513187      3.760161358e-05      9.093151005e-07      5.900959465e-14      2.381949522e-19      6.020804349e-23      5.109728606e-95       2.9448762e-185      7.417672964e-05      6.114579535e-05      7.252143936e-05      1.360176303e-05      6.005221833e-05      3.182908894e-09      5.141957448e-05      1.283121622e-11      2.741338585e-05      1.073689899e-27        1.8312558e-05      1.053681669e-47 
                   0                   16          -5.63069693         0.5135169254        0.06784772402       0.005016688474      2.436812213e-08      1.943023553e-12      3.412938962e-15      3.172854395e-71     9.210412637e-142         0.2483414016         0.1990593029         0.2403328484         0.0513590354         0.1886060739      0.0002356029218         0.1571709708      2.879911825e-05        0.08203127503      3.604194229e-11        0.06715103033      2.149783813e-18 
                   1                    4           1.22154616       -0.00198881401     -0.0002627693409     -1.942927258e-05     -9.437597922e-11     -7.525190062e-15     -1.321806641e-17      -1.22882362e-73    -3.567126375e-144     -0.0009710747449        0.00955453418     -0.0009354306856     -0.0001534567234     -0.0006970212103      -3.13002516e-06     -0.0005499789511     -6.164604985e-07     -0.0007087924229      3.087630488e-12     -0.0005010901783      7.803536247e-19 
                   1                    1          15.00269145       0.001373183485      0.0001814299968       1.34150082e-05      6.516222002e-11      5.195793406e-15      9.126459491e-18       8.48445502e-74     2.462934696e-144      0.0002734454118      -0.006851906185       0.000237026713      0.0001635411256     -1.908734735e-05      2.199816929e-08     -0.0001683237664     -1.750045089e-08     -0.0002897536289      2.163506393e-13     -0.0003750967442      3.175305522e-20 
                   0                    8          -4.17954764         0.9092325462         0.1968793749        0.07160755061      0.0001541166679      1.002058221e-06      3.252824998e-08      4.514180833e-39      3.503902196e-78           1.60621204           1.38818874          1.448234521         0.5575231504         0.9262383607        0.03684263444         0.7390868315       0.006612970741         0.3693566048      5.207581982e-05          0.307657397      1.319941286e-06 
                   1                    1           1.19942729                   -0                   -0                   -0                   -0                   -0                   -0                   -0                   -0     -0.0002251231879         -0.161026177     -0.0002823390335       -0.02031507724       0.001287625332      0.0006378838608        0.00261974987      0.0004668539078       0.004687368841     -9.939256232e-08         0.0220441207      1.337441173e-10 
                   1                    1           15.0179635                   -0                   -0                   -0                   -0                   -0                   -0                   -0                   -0      -0.007567423621          0.106572223      -0.008032145005        0.01590238006       -0.01181641957      0.0001528360672       -0.01460715431      7.407306672e-05       -0.01987975015     -3.361140651e-07       -0.02920264135     -3.206214137e-09 
                   0                    9           -3.6169601         0.8527223301         0.2115170927         0.1065382952      0.0008236707991      1.369489597e-05      8.299317087e-07      2.948248189e-32      1.307549527e-64          2.007274159          1.822241971          1.757797233          0.822979232          1.002752134        0.08130552598         0.7595375673        0.03105489354         0.3228688965       0.004124368588          0.201711345       0.002145635868 