ITEM: TIMESTEP
0
ITEM: NUMBER OF ENTRIES
588
ITEM: BOX BOUNDS pp pp pp
0 4.26
0 2.4768
0 30
ITEM: ENTRIES c_2[1] c_2[2] c_2[3] c_2[4] c_2[5] c_2[6] c_2[7] c_2[8] c_2[9] c_2[10] c_2[11] c_2[12] c_2[13] c_2[14] c_2[15] c_2[16] c_2[17] c_2[18] c_2[19] c_2[20] c_2[21] c_2[22] c_2[23] c_2[24] c_2[25] 
                   0                   78          -2.15198721         0.4581547504        0.09744703726        0.06383290434        0.03383920855       6.07764589e-05      1.028738027e-08      2.463383501e-40      2.129011975e-80          0.768493816         0.5664713204         0.7472612781         0.4165127146         0.6511172742         0.1372746011          0.408916458        0.01623633372         0.2948377874         0.0134558249         0.1620302246        0.01382781789         0.1818836505        0.01465620628 
                   1                    3          -2.54994232         0.7836821652         0.1666849576         0.1091873622        0.05788259142      0.0001039592558      1.759675402e-08      4.213662991e-40      3.641714318e-80          1.316741496          1.136583711          1.280105571         0.8769883339           1.11043279         0.2357099815          0.698058051        0.02841789833         0.4949779299        0.02288657735         0.2018377509        0.02130921294         0.1537341992        0.02012057172 
                   1                    1          15.01788824      -0.003885274695     -0.0008263769124      -0.000541320084     -0.0002869655298       -5.1540061e-07     -8.723973335e-11     -2.089015027e-42     -1.805459039e-82      -0.007444415425       -0.04579712639      -0.007201925274       -0.04414478018      -0.004627732027      -0.001508664948      -0.001186910059     -0.0001598580649       0.001783030387     -6.033894966e-05        0.01965512467      0.0006112969241        0.03906000973       0.001414314192 
                   0                   79          -1.32362015         0.1946535311        0.03082728834        0.01336670546       0.004423156707      2.628700235e-07      7.184000384e-13      9.982022845e-59     1.430661746e-116         0.1612767419         0.1300473746          0.159032623        0.09391586398          0.145944295        0.01687474282         0.1089279648      0.0001521725491        0.08800440382      1.971059562e-06        0.02911727676      6.876512138e-14       0.001816104186      8.712367299e-24 
                   1                    4          -3.82354114         0.7216272716          0.114284143        0.04955357933        0.01639770154      9.745221511e-07      2.663281045e-12      3.700575001e-58     5.303805828e-116         0.5967025075         0.4799467344         0.5880411063         0.3475907055         0.5371546671        0.06549156815         0.3885364756      0.0006068065678         0.3040769308      1.906192426e-05          0.128722926      9.404594507e-14        0.06045720884      4.353460987e-24 
                   1                    1          15.06229874      -0.009080938598      -0.001438148648     -0.0006235809383     -0.0002063482447     -1.226336111e-08     -3.351465859e-14     -4.656793844e-60    -6.674295298e-118      -0.008562592176      -0.006620044315      -0.008475076393      -0.004524037027       -0.00796964197     -0.0006532799929      -0.006512102929     -1.019764555e-05      -0.005559904731     -2.412810926e-07      -0.002664432996     -1.770938772e-15      -0.001030298112     -1.568269553e-25 
                   0                   68           0.02385697                   -0                   -0                   -0                   -0                   -0                   -0                   -0                   -0     -0.0009788689972      -0.007065319161     -0.0007954790735      -0.009625430991      0.0008960267997        -0.0019782452       0.007275591306      0.0004577236521       0.008978977095      0.0001059190114        0.02868422701      -8.53097827e-06        0.04195025609     -1.353942805e-06 
                   1                    1          -3.78172065         0.8137120297         0.1388539779        0.06751915073        0.02547174737      3.870552671e-06      3.272168883e-11      3.518983774e-53     3.615938187e-106         0.8156375538         0.5577811113         0.8023860424         0.4226311222         0.7285032692        0.09639358142         0.5305573274       0.003423888343            0.4205197       0.001343302285         0.2233224322      0.0001129967116         0.1866683921      5.316437737e-06 
                   1                    1           14.9994365                   -0                   -0                   -0                   -0                   -0                   -0                   -0                   -0      0.0008454595547       0.001063011584       0.000829164155       0.001039981639      0.0006996496232      0.0001557970384       0.000155404369     -2.161308883e-05     -0.0002056576358     -6.028812819e-06      -0.001734320485      4.926992221e-07      -0.002499105644      7.819578785e-08 
                   0                   69           0.74523777       -0.03143199001      -0.003607790958     -0.0008770123875      -0.000148279235     -7.887501444e-11     -8.649254339e-19     -2.219849761e-83    -1.472788818e-164      -0.009660888523      -0.007155752275      -0.009586774317       -0.00464576842      -0.009133075201     -0.0005781899477      -0.007570272935     -2.098508578e-06      -0.006452506186     -5.260288706e-08      -0.004364387721      3.133083173e-19      -0.004248221495      1.435656616e-31 
                   1                    2          -4.91024909         0.2650103806        0.03041812035       0.007394294364        0.00125017654      6.650134971e-10      7.292386462e-18      1.871606697e-82      1.24174233e-163        0.08149255003        0.05996873276        0.08089862928        0.03899926654        0.07722388305        0.00467135605        0.06406914952      1.241505987e-05        0.05438928001      2.742329403e-07        0.03343272682      6.696659014e-18        0.02736782511      4.027288604e-31 
                   1                    1          14.95777378       0.001815327215      0.0002083648255      5.065108683e-05      8.563738111e-06      4.555357783e-12      4.995301535e-20      1.282054901e-84     8.505963582e-166      0.0006294019373      0.0004633599322      0.0006253640274      0.0002971946052      0.0006003309831      3.180808246e-05      0.0005087809187      1.157083525e-07      0.0004379178056      3.097179989e-09      0.0002870798791     -5.843082192e-21      0.0002546767987     -6.175070949e-33 
                   0                   70           2.10801299        -0.4441817258       -0.09598943611       -0.06409929112        -0.0347349858     -7.328202003e-05     -1.509531641e-08     -1.725941022e-39     -1.051693285e-78        -0.7796132147        -0.6885806794        -0.7580873047        -0.5298261547        -0.6549462496        -0.1402678464        -0.4609622519        -0.0179063207        -0.3613931456      -0.003960912116        -0.1330208869     -3.028735465e-07       -0.03827531643      -1.23511249e-12 
                   1                    3          -2.54994232         0.7932060539         0.1714149804         0.1144665411         0.0620286685      0.0001308647757       2.69567514e-08      3.082132353e-39      1.878081496e-78          1.389356502          1.103648618          1.350566443         0.8140209143          1.166645742         0.2508913543         0.8288375236          0.034345988         0.6605103717       0.007260290469         0.3290404252     -9.761366663e-09         0.2910622446     -3.940774102e-13 
                   1                    1          15.01788824      -0.003932491444     -0.0008498270287     -0.0005674927609     -0.0003075206082     -6.487905739e-07     -1.336439551e-10     -1.528034115e-41     -9.310997286e-81      -0.006708907615        0.02693105218      -0.006645003715        0.03304099962      -0.006695583211     -7.210003114e-05      -0.009672657029     -0.0002883090789       -0.01394527595     -8.283624596e-05       -0.04500916332      6.423234967e-09       -0.07946868129      3.615889657e-14 
                   0                   71           2.93638005        -0.2391170693       -0.03083630231      -0.009395163486      -0.002070672946     -7.006057602e-09     -6.432176032e-16     -2.196360475e-73    -1.038927135e-145        -0.1078963612       -0.07626389687        -0.1070065738       -0.05044483839        -0.1015498766      -0.006951094534       -0.08247899031     -2.730544416e-05       -0.06830892824     -5.573866725e-07       -0.03340898107     -7.657784802e-19       -0.02578102925      -1.03646065e-33 
                   1                    4          -3.82354114         0.4101221775        0.05288895304        0.01611413572       0.003551519346       1.20164554e-08      1.103216114e-15      3.767092592e-73     1.781918205e-145         0.1849959997         0.1386486348         0.1834618071        0.09226468451         0.1740629454        0.01197577689         0.1413745647      4.790613406e-05         0.1172948663      9.583862117e-07        0.05850176953      1.061260414e-18        0.04623061299       1.28240206e-33 
                   1                    1          15.06229874       -0.00516096669     -0.0006655531933     -0.0002027798598       -4.4692226e-05     -1.512147586e-10     -1.388284255e-17     -4.740499406e-75    -2.242361181e-147      -0.002569404333       0.001495247774      -0.002556760683       0.001895818872      -0.002481875533     -9.618586649e-05       -0.00226300673      -5.94786578e-07      -0.002155548251     -1.067479064e-08      -0.002497229148     -1.790770666e-20       -0.00355364365     -3.101517527e-35 
                   0                   50          -5.58362035           0.22978495        0.02617189644       0.006263046212       0.001039334656      4.849964689e-10      4.586896036e-18      3.839289653e-83     6.368316029e-165        0.06862437071        0.05046184784        0.06812905914        0.03275259056        0.06506081136       0.003899247938         0.0541077784      6.583976536e-06        0.04613362198      6.100262449e-08        0.02855812532      1.072932137e-17        0.02329375031      8.554705642e-30 
                   1                    4          -1.34674114         0.1032088139        0.01175521021       0.002813071836      0.0004668212478      2.178380713e-10      2.060222393e-18      1.724432046e-83     2.860354188e-165        0.03085691861        0.02286913033        0.03063781519        0.01490905835        0.02927761093       0.001727722921        0.02439262093      2.563334948e-06         0.0208469433      1.764183889e-08        0.01282669384       3.21496632e-18       0.009870127437      3.183591614e-30 
                   1                    1          15.06229874      -0.002575988426     -0.0002933982505     -7.021145012e-05     -1.165138989e-05     -5.437019659e-12      -5.14210835e-20      -4.30400934e-85    -7.139157017e-167      -0.000810847506     -0.0005144452801     -0.0008056126809     -0.0002848605886     -0.0007734134673      -4.09871624e-05     -0.0006633139831      -7.71535024e-08     -0.0005926892922     -9.322881581e-10     -0.0005570750637     -1.573605713e-19     -0.0006495956742     -1.111299543e-31 
                   0                   42          -4.23614323         0.7091767466         0.1220831632        0.06014235769        0.02302895094      3.894688774e-06       3.74652031e-11      1.123147344e-52     4.151769392e-105         0.7239201097         0.5985625585         0.7116083536         0.4279957544         0.6437847975        0.08876778081         0.4652200762       0.003828634682         0.3651918289       0.001465728443         0.1731311408      7.097405119e-05         0.1366389584      1.681319614e-06 
                   1                    1          -1.30492065         0.4123213341        0.07098017947        0.03496727337        0.01338922606       2.26440486e-06      2.178258467e-11      6.530073264e-53     2.413873696e-105         0.4196705607         0.2412100075         0.4127123332         0.1677067772         0.3752900219        0.04929190849         0.2806606356       0.002851778555         0.2287506775      0.0009925777589         0.1445811826      2.719631541e-05         0.1296079805       1.93592116e-07 
                   1                    1           14.9994365                   -0                   -0                   -0                   -0                   -0                   -0                   -0                   -0       0.001122609268       -0.08958708194        0.00117092261       -0.06314941516       0.001470946201     -0.0003810763831       0.002472387575      1.351668054e-08       0.002933582526     -3.969659731e-06        0.00204586753      6.310295762e-07       0.004547537347       3.51627936e-08 
                   0                   43          -3.51476243         0.5508257144        0.09091769235        0.04204353223        0.01497595721       1.50699555e-06      7.753572987e-12      1.621965763e-55     1.216929387e-110         0.5062719538          0.411948075         0.4983092077         0.3025688693         0.4519970925          0.059754103         0.3190264058      0.0008114069538         0.2424814683       3.38936079e-05        0.09186184842      8.810718279e-14        0.03869137354      2.345452353e-23 
                   1                    2          -2.43344909         0.5612097231        0.09263164666        0.04283612486        0.01525827966      1.535404999e-06      7.899741126e-12      1.652542597e-55     1.239870591e-110         0.5151832912         0.4182727475         0.5072491479         0.3059055976         0.4613644341        0.05928571559          0.332005737      0.0008699054618         0.2573003792      3.713141859e-05        0.08851510616      3.417252314e-13        0.03037708531        3.5085225e-23 
                   1                    1          14.95777378       0.006485268664       0.001070439607      0.0004950088475      0.0001763227523       1.77429462e-08      9.128841049e-14      1.909657349e-57     1.432778792e-112       0.008227800065       0.005368065357       0.008190232654       0.002819243714       0.008006646994       0.000247992429       0.007822278107      1.420676096e-05       0.007937505641      5.594677123e-07       0.008422260663      2.069351295e-15       0.005815863695      1.697692983e-25 
                   0                   44          -2.15198721         0.4922691909         0.2120166571          0.250795519         0.2615940774        0.07196760762       0.005849106478          3.35796e-13      1.503640169e-26          2.820035429          2.802847503          2.558027844          2.507680482          1.745689973          1.368942274         0.6681221909         0.5483211827         0.2905380909         0.4034219767        -0.2115273556         0.1631515999        -0.2151120881          0.146334264 
                   1                    3          -0.07314232         0.2816772523         0.1213162849         0.1435056144         0.1496845675        0.04117998515       0.003346868485      1.921430314e-13      8.603854135e-27          1.725971267          1.650207377          1.567545664          1.351932146         0.9951756626         0.7787636443         0.6701183757         0.2532772226         0.6414687633        0.08376805819         0.5367803566        0.04764966783         0.4360575985        0.05384810789 
                   1                    1          15.01788824      -0.004174574266        -0.0017979579       -0.00212681301       -0.00221838767     -0.0006103045413     -4.960198573e-05       -2.8476398e-15     -1.275127039e-28        0.07529326359         0.1550530376        0.06069444363         0.1015929424      -0.008942512874       -0.01451552865        0.02031133992     -0.0009267669721        0.03188215282      5.171647521e-05       -0.03247728782        -0.0127591666       -0.06175990691       -0.02690613924 
                   0                   45          -1.32362015         0.3197793349         0.1179129663         0.1276659714         0.1202869734        0.01540980382      0.0004883796389      1.526416882e-17      5.698539719e-35          1.451075949          1.526052117          1.339009235          1.316035976          1.001236341         0.5885384135         0.4629911617         0.2278959249         0.2875965227         0.1803256946        0.04948778356         0.1285390864       -0.06633630879         0.1224374794 
                   1                    4          -1.34674114         0.5977116592         0.2203955885         0.2386252996          0.224832935        0.02880304761      0.0009128488693      2.853083572e-17      1.065135629e-34          2.697670271          2.603200151          2.489570171          2.235118747          1.852751331          1.113647464         0.8316092653          0.426456645         0.4490556719         0.3378374358        0.06252813778          0.232498702        0.09256096481         0.2275611948 
                   1                    1          15.06229874       -0.01491828321      -0.005500852723      -0.005955848019      -0.005611604439     -0.0007188951646     -2.278379174e-05     -7.121010289e-19     -2.658471644e-36        -0.8412381743       -0.01007412319         -0.533974243       0.007911306824       -0.07096376423       -0.01875476639       -0.06205591159       -0.01103341222       -0.05911070652      -0.009013073293       -0.05099716574       0.001488736781       -0.07008960466         0.0107330793 
                   0                   34           0.02385697                   -0                   -0                   -0                   -0                   -0                   -0                   -0                   -0        0.01607306472        -0.1098312689        0.02798894236        -0.1657592149        0.01120537296         -0.013704145         0.2642272906       -0.05912662891         0.3575709131        -0.1345208978         0.3970655495       -0.06361314662         0.5485529871      -0.006573269626 
                   1                    1          -1.30492065         0.5572350607         0.2433932895         0.2899488464         0.3048959963        0.08916197783       0.007813167168      8.180428237e-13      7.761829956e-26          3.238662837          3.268830304          2.973070524          2.869280705          2.006344639            1.5898455         0.8858389556         0.6362136405          0.529792471           0.43462576        0.07410702085         0.1715008853        0.03253327246          0.150011066 
                   1                    1           14.9994365                   -0                   -0                   -0                   -0                   -0                   -0                   -0                   -0         0.0105899495        0.01562809385        0.01004799115        0.01622614532        0.01111963277      0.0004199094832      -0.006344089245       0.002603286055       -0.01607824309       0.007463145217        -0.0241084217       0.003805011901       -0.03230519564      0.0003904143975 
                   0                   35           0.74523777        -0.1706297688       -0.04554600823       -0.03818915089       -0.02684342433     -0.0003861303724     -8.326685296e-07     -1.273730234e-29     -1.104590748e-58        -0.4581260687        -0.3754575356        -0.4382827058         -0.291841841        -0.3536449357        -0.1201015725        -0.1714954174       -0.02608099223        -0.1025470799       -0.02339552766        -0.1891892482      -0.004141567839        -0.3838141414      -0.003251498032 
                   1                    2          -2.43344909         0.8527761733         0.2276305646          0.190862346         0.1341584932       0.001929808519      4.161524026e-06      6.365869228e-29      5.520541214e-58          2.295119945          2.002105428           2.19782023          1.589415709          1.785344508         0.5837061296          1.141405247         0.1259166096         0.8627370458        0.05783008137         0.2908042348        0.01013535612        0.08300290022       0.005543551059 
                   1                    1          14.95777378       0.009854573729       0.002630470048       0.002205581159         0.0015503186      2.230062346e-05      4.809004593e-08      7.356318061e-31      6.379467687e-60        0.03961922737        0.02965705924        0.03869549281        0.02009508895        0.03502444902       0.005342009064           0.02701518       0.001408943306        0.02236987291       0.001356526734        0.02147676707      0.0002392741891        0.02790626342      0.0001884063239 
                   0                   36           2.10801299        -0.4644099828        -0.2075938174        -0.2501079804        -0.2664365146        -0.0859148703      -0.008492856825     -2.326810799e-12     -7.345375956e-25         -2.909751431         -2.831962409         -2.634022145         -2.434483697         -1.703573457         -1.399960793        -0.9085006652        -0.5284254421        -0.7048882236         -0.286272325        -0.3807067976        -0.1180171509        -0.3193822012        -0.1088691611 
                   1                    3          -0.07314232         0.2774266834         0.1240112539         0.1494081309         0.1591623809        0.05132335309       0.005073416139      1.389977448e-12      4.387940323e-25           1.60983126          1.673905464          1.438266507          1.566999953         0.9878353489         0.8669643057         0.2186811793         0.4137507379        -0.0802701955         0.3638768624        -0.4750104664         0.1275611126        -0.4784408623         0.1159555487 
                   1                    1          15.01788824      -0.004111579063      -0.001837898463      -0.002214290764      -0.002358852814     -0.0007606334813     -7.519014147e-05     -2.060004504e-14     -6.503110422e-27        0.03649075475        0.08520848948        0.03341685005        0.06942638659       -0.02313644326      -0.002213236249       -0.03808525019       -0.01834994846       -0.04645136953       -0.02578653573       -0.01390223075        -0.0184594055       0.009720867688        -0.0275673337 
                   0                   37           2.93638005         -0.674357542        -0.1688957202          -0.13292828       -0.08691052047     -0.0007311167963     -8.169217435e-07     -6.615990115e-32     -8.215984309e-64         -1.604922965         -1.384860579         -1.544499258         -1.081865743         -1.279953183        -0.3700404906        -0.8667125168       -0.07223389767        -0.6844312579       -0.02407942004        -0.2631115955      -0.002548159161       0.009923658093      -0.001441048364 
                   1                    4          -1.34674114         0.5831544253         0.1460535109         0.1149504675        0.07515635469      0.0006322373053      7.064376094e-07      5.721214152e-32      7.104818008e-64          1.383445646          1.166076678          1.330085344         0.9043492894          1.097672681         0.3260055761         0.6968774291        0.06651778384         0.5251976608        0.03340400698         0.2897202748       0.002658049893         0.3336193337       0.001652890889 
                   1                    1          15.06229874       -0.01455494926      -0.003645349069      -0.002869048317      -0.001875827194     -1.578000869e-05     -1.763197382e-08      -1.42795764e-33     -1.773291278e-65       -0.04196729203       -0.02471004617       -0.04107924418       -0.01087030645       -0.03850231065      -0.004206574439       -0.03962706461      -0.002082398935       -0.04481308659      -0.001540645705        -0.0634361348     -9.388152592e-05       -0.05279470327     -7.203645958e-05 
                   0                   38           4.28385717        -0.7091767466        -0.1220831632       -0.06014235769       -0.02302895094     -3.894688774e-06      -3.74652031e-11     -1.123147344e-52    -4.151769392e-105        -0.7242798075        -0.5113803912        -0.7118145545        -0.3581922469        -0.6457521625       -0.08739474972        -0.4771928704      -0.006268303145        -0.3831767693      -0.002991864201        -0.2170173507     -9.760433687e-05        -0.1927967365     -1.255120808e-06 
                   1                    1          -1.30492065         0.4123213341        0.07098017947        0.03496727337        0.01338922606       2.26440486e-06      2.178258467e-11      6.530073264e-53     2.413873696e-105          0.421521152         0.3972479493         0.4141070099         0.2897984471         0.3740126004        0.05275847093         0.2685160251       0.003041504237         0.2095434822       0.001689507547        0.08043840211      0.0001138788693        0.04724257252       3.19246244e-06 
                   1                    1           14.9994365                   -0                   -0                   -0                   -0                   -0                   -0                   -0                   -0      0.0009499166138        -0.0504310184      0.0009480844639       -0.03877139975      0.0009748947818     -2.285434873e-05       0.001345842054      2.863121087e-05       0.001886618941      2.309045775e-06       0.006642261435     -4.351837047e-06        0.01118935739     -1.875933858e-07 
                   0                   39           5.00523797        -0.2030521406        -0.0231122241      -0.005523609643     -0.0009151978536     -4.224126846e-10     -3.945882008e-18     -3.007937986e-83    -4.444572916e-165       -0.06029466756       -0.04420252989       -0.05986278022       -0.02862102814       -0.05718331277      -0.003403958339       -0.04755146541     -5.591366372e-06       -0.04048224627     -1.899986995e-08       -0.02530081182     -1.998277073e-23       -0.02098569052     -1.001027435e-41 
                   1                    2          -2.43344909         0.1469611855        0.01672772246       0.003997772292      0.0006623843569      3.057257546e-10      2.855874832e-18      2.177027689e-83     3.216807776e-165        0.04361555341        0.03180430914        0.04330089496        0.02051620848        0.04135154854       0.002477256008         0.0343796936      4.078552728e-06        0.02926144115      9.321521974e-09        0.01841041606      1.237613038e-23        0.01594151922      1.186440273e-41 
                   1                    1          14.95777378       0.001698264895      0.0001933034476      4.619775158e-05       7.65442995e-06      3.532928199e-12      3.300212878e-20      2.515745696e-85     3.717302429e-167      0.0005761102155      0.0002538288661      0.0005732171559      7.226781108e-05      0.0005555664787      2.251090036e-05      0.0004977392118      5.060178328e-08       0.000464960556      1.976518101e-10      0.0005523132682      1.979276873e-25      0.0007694867119      1.551058573e-44 
                   0                   40           6.36801319       -0.02578971658      -0.002632155694     -0.0004989719465     -6.240702851e-05     -3.721263993e-12     -3.435982313e-21     -1.456968003e-93    -3.829823337e-184      -0.005094857883      -0.003778717851      -0.005063347208      -0.002467129506      -0.004865264895     -0.0002508776227      -0.004111778531     -2.321542286e-07       -0.00350713991     -7.266915915e-10      -0.001839793817     -7.437928102e-27      -0.001189228073     -1.371269863e-46 
                   1                    3          -0.07314232        0.00506115469      0.0005165526768      9.792175107e-05      1.224719256e-05      7.302869209e-13       6.74301245e-22      2.859256098e-94     7.515913672e-185       0.001000184509      0.0007427439454      0.0009939815543      0.0004845969488      0.0009549810918      4.939314091e-05      0.0008066030417      4.448229598e-08       0.000687834494      1.298065206e-10      0.0003696559208       6.78956784e-28      0.0002491776267      2.506488664e-47 
                   1                    1          15.01788824      -7.50084217e-05     -7.655525939e-06     -1.451241159e-06     -1.815084976e-07     -1.082315651e-14     -9.993425459e-24     -4.237536694e-96    -1.113889728e-186      -1.46395503e-05     -1.002369181e-05     -1.454498108e-05     -6.407141758e-06       -1.3950328e-05     -7.530978465e-07      -1.16832079e-05     -7.119370685e-10     -9.852925016e-06     -1.984744166e-12     -4.773134562e-06     -1.954275477e-29     -2.971681366e-06     -3.987088071e-49 
                   0                   16          -5.58362035         0.5662968175        0.07747818637        0.02628094518       0.006559082401      5.298476017e-08      1.348628304e-14      1.362152395e-68     1.365295608e-136         0.3055380138         0.2249182275         0.3026901973         0.1500151996         0.2856756684        0.02181110742         0.2300343569      0.0002695099168         0.1906427422      3.420340635e-05        0.09643383246      6.521693159e-10        0.07791985824      1.040143595e-15 
                   1                    4           1.13005886       0.004223434005      0.0005778312659      0.0001960029337      4.891754782e-05      3.951596246e-10      1.005805165e-16      1.015891414e-70     1.018235617e-138       0.002219349702      -0.002283920077       0.002203373415      -0.001007712864        0.00208689321      0.0001427230442       0.001502177182     -8.828486206e-06      0.0008226883848     -2.323638702e-06      -0.003292787764      1.652443569e-11      -0.004167015146      2.050779651e-16 