ITEM: TIMESTEP
0
ITEM: NUMBER OF ENTRIES
582
ITEM: BOX BOUNDS pp pp pp
0 4.26
0 2.4768
0 30
ITEM: ENTRIES c_2[1] c_2[2] c_2[3] c_2[4] c_2[5] c_2[6] c_2[7] c_2[8] c_2[9] c_2[10] c_2[11] c_2[12] c_2[13] c_2[14] c_2[15] c_2[16] c_2[17] c_2[18] c_2[19] c_2[20] c_2[21] c_2[22] c_2[23] 
                   0                  102           4.99317152       -0.01677175206      -0.001796441903     -5.381178994e-05     -8.398739518e-12     -6.226421098e-17     -2.324984556e-20     -2.182909912e-89    -5.099222736e-176      -0.004019816384      -0.003317343855      -0.003921906443      -0.000740542335      -0.003212807661     -2.740744222e-07      -0.002747802104     -1.921732019e-10      -0.001730883934      2.435308596e-30      -0.001497662373      5.119327405e-56 
                   1                    2          -5.00565225          0.127329723        0.01363843497      0.0004085345574      6.376251999e-11      4.727046229e-16      1.765108608e-19      1.657246741e-88     3.871286767e-175        0.03050977646        0.02513110755        0.02976373724        0.00568524913        0.02429806689      1.813385922e-06        0.02070348877      2.993988064e-09        0.01240429343      4.394786603e-30       0.009872857045      4.406964545e-56 
                   1                    1          14.95007814     -0.0008560405471     -9.169150029e-05     -2.746586876e-06     -4.286768338e-13     -3.178003647e-18     -1.186686426e-21     -1.114170654e-90    -2.602674666e-177     -0.0001699907015     -0.0001401790976     -0.0001650746131     -3.308956614e-05     -0.0001307817582     -1.634072608e-08     -0.0001106238061     -4.127929947e-11     -8.066668954e-05     -2.531300168e-31     -7.472290054e-05     -4.392819608e-57 
                   0                   68           4.16707431                   -0                   -0                   -0                   -0                   -0                   -0                   -0                   -0      -0.001840573745      -0.004273613448      -0.001664088011      -0.003838733748       0.003239207936       0.000593661564       0.004010858201      7.959104778e-05        0.01922864845     -1.448741637e-05        0.02989857515     -2.568143808e-07 
                   1                    1          -3.68759211         0.8137120297         0.1388539779        0.02547174737      3.870552671e-06      3.640260861e-09      3.272168883e-11      3.518983774e-53     3.615938187e-106         0.8170538467          0.599544202         0.7679596076         0.2301140316          0.526221613       0.005512883692         0.4158833063       0.002276961024         0.2135742458       4.46077852e-05          0.177461485      3.377284008e-07 
                   1                    1          14.90791363                   -0                   -0                   -0                   -0                   -0                   -0                   -0                   -0       0.008135697208       0.006284303881       0.008250890994      0.0003330632714       0.008544052755     -3.048526901e-05       0.008531465751     -8.442165475e-07        0.00497637574     -7.394466474e-07        0.00323444827     -1.310796405e-08 
                   0                   69           0.73317132         0.5139697313        0.08295958291        0.01269041892      9.626739525e-07      5.475822894e-10      3.526348443e-12      4.990658946e-57     1.296914675e-113          0.448722696          0.391630473         0.4248323693         0.1291937545         0.2888802584      0.0005789473208         0.2232084902      1.968197564e-05         0.0926809496      1.458287651e-14        0.05094302868     -9.066800771e-25 
                   1                    2          -2.52885225         0.5679960244        0.09167993835        0.01402438131      1.063866108e-06      6.051417904e-10      3.897023063e-12      5.515255603e-57     1.433240781e-113         0.4949627662         0.4339595037         0.4687954374         0.1432711658         0.3210852281      0.0006040189729         0.2498445954      1.655560027e-05        0.08192282861      8.050669845e-14        0.01865768294      3.205783487e-24 
                   1                    1          14.95007814      -0.006310976734      -0.001018651422     -0.0001558242318     -1.182056558e-08     -6.723701568e-12     -4.329963736e-14     -6.127974192e-59    -1.592466995e-115     -0.0003566443832      -0.002201799792      0.0002392441938      -0.003500761202       0.004341672975     -8.775640233e-06       0.007217446478     -1.231777897e-07        0.01507749402     -3.675597634e-15        0.01185835855     -2.173559457e-25 
                   0                   71            2.8915458         0.1937595873        0.03153388798       0.004958254911      4.177362192e-07      2.563314108e-10      1.735831537e-12      6.673915563e-57     6.040218427e-113         0.1725949925         0.1512515056           0.16341907         0.0491473813         0.1144916889      0.0004235554119        0.09181276763      0.0001627725296        0.02939123291      3.430035921e-05        0.00106573159      4.974470184e-06 
                   1                    4          -3.66276711         0.7487072238         0.1218502272        0.01915921334      1.614176255e-06      9.904912665e-10      6.707433835e-12      2.578870478e-56     2.334003305e-112          0.667649959          0.581876259         0.6316094571         0.1907740104          0.432515111       0.001482565705         0.3397406272      0.0005142903512         0.1499185981      0.0001201747358        0.07292270334      2.156166148e-05 
                   1                    1          15.06637231       -0.02407071907      -0.003917449297     -0.0006159631259     -5.189529623e-08     -3.184400559e-11     -2.156420432e-13     -8.290993437e-58    -7.503752612e-114       -0.01994521052       -0.01730050168        -0.0188914943      -0.005421729699       -0.01357154207     -5.197685668e-05       -0.01125805596     -1.126554281e-05      -0.005042713919     -3.380628235e-06      -0.001510633467     -7.845860023e-07 
                   0                   73           4.99317152        -0.1903370251       -0.04710516057       -0.02360549694     -0.0001788638232     -2.930225287e-06     -1.758371313e-07     -5.132762153e-33     -1.781110112e-65        -0.4472182671        -0.3947916019        -0.3938495787        -0.1784457865          -0.20297321       -0.01894315632         -0.139980043       -0.01248253366        -0.1429130446     -0.0008094752521        -0.2565397439     -0.0006310102159 
                   1                    2          -2.52885225         0.8743551982         0.2163879675         0.1084370681      0.0008216505092      1.346063757e-05      8.077467307e-07      2.357847753e-32      8.181923009e-65          2.044828566          1.863576893           1.79032914         0.8394857888          1.039878425        0.08482945344         0.7886394521        0.02875356321         0.2714155467        0.00307569176         0.0783365676       0.001677413429 
                   1                    1          14.95007814        -0.0097149189      -0.002404276385      -0.001204839091     -9.129319615e-06      -1.49560502e-07     -8.974835395e-09     -2.619793391e-34     -9.090895628e-67       0.005698441173       0.004050819046       0.008622689404      -0.003749774061        0.01228121459      -0.002169194456        0.01112947546     -0.0009588467691      -0.003368205689     -4.257800792e-05       -0.01157152687     -3.220775012e-05 
                   0                   75             7.151546        -0.2511458459        -0.0325933794      -0.002244872266     -8.353926529e-09     -5.520916897e-13     -8.569765979e-16     -6.965358274e-73     -9.70525234e-145        -0.1151026536       -0.09641600099         -0.111453273       -0.02449310157       -0.08682853505      -4.32469014e-05        -0.0716388619     -1.979887783e-06       -0.03691878858     -8.274994332e-13       -0.03037498162     -1.491997469e-20 
                   1                    4          -3.66276711         0.4147606328        0.05382709244       0.003707346376      1.379628574e-08      9.117646272e-13      1.415273881e-15      1.150310249e-72      1.60279641e-144         0.1900744957         0.1516556204         0.1840526742        0.03929152845         0.1437560954      7.824050932e-05         0.1191395512      4.356084858e-06        0.06216319037      1.671823102e-12        0.05155187555      2.328823714e-20 
                   1                    1          15.06637231       -0.01333443348      -0.001730525337     -0.0001191901057     -4.435465664e-10     -2.931296708e-14     -4.550064286e-17      -3.69821393e-74    -5.152943752e-146      -0.005847045207        -0.0106436879      -0.005665435095      -0.001840822195      -0.004417444592     -1.778425053e-06      -0.003616586818     -9.306180595e-08      -0.001499003692     -4.414087559e-14      -0.000748812756       -7.9125788e-22 
                   0                   80           9.25317172       -0.09142768034      -0.009725509833     -0.0002819369832     -3.861129972e-11     -2.617986366e-16     -9.231734385e-20     -3.027336268e-89    -1.976610663e-176       -0.02134588047       -0.01743399492       -0.02084484798      -0.003836395099       -0.01717119858     -1.139011322e-06       -0.01476198308     -1.843324114e-09      -0.009061120924     -2.394555538e-30       -0.00714389098     -1.861549699e-56 
                   1                    2          -2.52885225        0.06821640087       0.007256437821      0.0002103599938      2.880882344e-11      1.953342869e-16      6.888020031e-20       2.25876872e-89     1.474796964e-176        0.01593482858        0.01303848979        0.01556003379       0.002862863297        0.01281805909      8.827365053e-07        0.01102086649      1.219292891e-09       0.006859501607      1.246021535e-31       0.005571448177     -5.370565563e-57 
                   1                    1          14.95007814     -0.0007579491762      -8.06259345e-05     -2.337299857e-06      -3.20093463e-13     -2.170349944e-18       -7.6532462e-22      -2.50970715e-91    -1.638639872e-178     -0.0001451663774     -0.0001719892451     -0.0001397181741     -5.772071743e-05     -9.702386715e-05     -9.852650896e-09     -6.483189207e-05     -2.554935974e-11      5.567158368e-05     -1.060375333e-31      0.0001364735621     -1.099469562e-57 
                   0                   42          -0.09292589         0.7091767466         0.1220831632        0.02302895094      3.894688774e-06      3.958702083e-09       3.74652031e-11      1.123147344e-52     4.151769392e-105          0.728646856         0.6288535864         0.6852159559         0.2110202781         0.4644060245       0.004405846053         0.3624282322       0.002351345036         0.1811012463      0.0004119886994         0.1394842197      4.719346463e-05 
                   1                    1          -1.21079211         0.4123213341        0.07098017947        0.01338922606       2.26440486e-06      2.301622737e-09      2.178258467e-11      6.530073264e-53     2.413873696e-105         0.4208075516         0.3594522864         0.3963685012         0.1154948832         0.2756963381       0.003114040925         0.2196761507       0.001504932067         0.1392222177       0.000163349552         0.1317381622      7.711735742e-06 
                   1                    1          14.90791363                   -0                   -0                   -0                   -0                   -0                   -0                   -0                   -0       0.009157664521       -0.01098003136       0.009790321263      -0.009618990554        0.01475955433      6.320350348e-06        0.01843869542      6.005165999e-06        0.03765010607     -4.734784734e-06        0.06397936302     -1.226013897e-06 
                   0                   45           -1.3684544          0.284649232         0.0334473266       0.001523504917      1.196984794e-09      2.677720666e-14      2.043289727e-17      1.530443618e-80     6.642867461e-160        0.09423078834        0.07763978359        0.09152242173        0.01863756668        0.07266069177      1.155269049e-05        0.06122953673      1.613980033e-07        0.03840247302      2.574746221e-17        0.03261033793        1.6251794e-29 
                   1                    4          -1.18596711         0.1260860231         0.0148155692      0.0006748399591      5.302071301e-10      1.186102444e-14        9.0507982e-18      6.779134725e-81     2.942473212e-160        0.04169606205        0.03397556704        0.04051595428       0.008201937527        0.03221444017      4.424229619e-06        0.02713493708      4.227797495e-08        0.01600164078      8.446710542e-18        0.01230009413      7.688990282e-30 
                   1                    1          15.06637231       -0.00814829873     -0.0009574549244     -4.361147611e-05     -3.426459159e-11     -7.665177155e-16     -5.849070793e-19     -4.381010166e-82    -1.901570861e-161      -0.002585102276      -0.001987463805      -0.002502190465     -0.0005193100657      -0.001926402978     -3.369410418e-07      -0.001578636996     -3.377553015e-09     -0.0008539429651     -6.214307963e-19     -0.0006673620011     -4.843783229e-31 
                   0                   34           4.16707431                   -0                   -0                   -0                   -0                   -0                   -0                   -0                   -0      -0.004311245302       -0.05683539154      -0.005512046791       -0.06413362141         0.1638632356       -0.06543609013         0.2397824046         -0.131461136         0.2540653716      -0.004405439764         0.3770806703     -0.0004629520851 
                   1                    1          -1.21079211         0.5572350607         0.2433932895         0.3048959963        0.08916197783        0.02165100651       0.007813167168      8.180428237e-13      7.761829956e-26          3.305709431          3.382169824          2.471538342          2.215616913         0.8521562018         0.6202908521         0.5083582066         0.3945489476        0.05959182526          0.162685326        0.02037890205         0.1508834269 
                   1                    1          14.90791363                   -0                   -0                   -0                   -0                   -0                   -0                   -0                   -0         0.1134577424        0.08256524983         0.1284865961          -0.01189619         0.1329560378       -0.01676627143         0.1311088995       -0.01413016011        0.06366559816       -0.00283774704        0.03440005471     -0.0003409469678 
                   0                   35           0.73317132         0.8121140307         0.2166651701         0.1275608641       0.001827237161      4.783137976e-05      3.920151502e-06      5.756086673e-29      4.742791625e-58          2.209252881           2.01312816          1.908645887         0.9420263651          1.053478346         0.1284218693         0.7716874289        0.07226483238         0.3667666012        0.01013731085         0.3218006944       0.005566709134 
                   1                    2          -0.05205225         0.3117196776        0.08316417942        0.04896262092      0.0007013618252      1.835946889e-05      1.504700468e-06      2.209400915e-29      1.820460453e-58         0.8477843002          0.801721664         0.7337146481         0.3681173929         0.4545604555        0.04596475121         0.3623693694        0.01158398929       -0.05172656246     -0.0001882346325        -0.3433232117      0.0008377035776 
                   1                    1          14.95007814      -0.009971857175      -0.002660407343      -0.001566305555     -2.243644034e-05      -5.87316152e-07     -4.813510099e-08     -7.067834322e-31     -5.823620687e-60       0.009916118829       -0.01547127811        0.01735763149       -0.03704262754        0.05831844937      -0.002139627392        0.08505165637      -0.001962134813         0.1484921426     -0.0006526984218         0.1506977959     -0.0006770476339 
                   0                   36           2.12581792         0.4388868872        0.09600760192        0.03583989194      8.540237353e-05      5.983050237e-07      2.040954503e-08      7.616755834e-39      2.034566741e-77         0.7937617035         0.6152357283         0.7167693605         0.2731499261         0.4167288084        0.02274802208         0.3059459584        0.01804990125          0.171413764        0.01003901863         0.1761893348       0.003348452621 
                   1                    3          -2.43588173         0.7959366692         0.1741131328        0.06499689339      0.0001548801815      1.085047017e-06      3.701342138e-08      1.381325222e-38      3.689757707e-77          1.436823314          1.318067279          1.299108086         0.5391073014         0.7524999701        0.04096262091         0.5407097599        0.03433018679         0.2278701359        0.03041159143         0.1887398764        0.02660789218 
                   1                    1          15.08034036       -0.03707316297      -0.008109846924      -0.003027427324     -7.214013915e-06     -5.053935375e-08     -1.724012294e-09     -6.433940921e-40     -1.718616494e-78       -0.06161056182        -0.1208738096       -0.05586373861       -0.03606462865       -0.03388080751      -0.001942821814       -0.02459829853      -0.002044362656       0.006187446039      -0.004873600268        0.02967948587      -0.007055782421 
                   0                   37            2.8915458         0.2999339888         0.1148863264         0.1232834694        0.01934987817        0.00296494533      0.0007875233266       1.81139295e-16      8.191041708e-33          1.536802295          1.603235183          1.169126475         0.9288889555         0.4302851403         0.2325681327         0.2679181912         0.1530402201         0.0825913311       -0.07344319063       -0.03326163558        -0.1963271529 
                   1                    4          -1.18596711         0.5765693486         0.2208483762         0.2369903788        0.03719667351       0.005699576112        0.00151387248      3.482078365e-16      1.574580994e-32          2.893154567          2.778988412          2.213357455          1.719066326         0.8319762465         0.4750206915         0.4601795314         0.3817230162        0.04630011082         0.2823733482        0.07271915341         0.2643459633 
                   1                    1          15.06637231       -0.03726074609        -0.0142723079       -0.01531548348      -0.002403831925     -0.0003683346312     -9.783388284e-05     -2.250290241e-17     -1.017571655e-33        -0.1422924482       -0.05057305299          -0.10489099       -0.05855417279       -0.08537939331       -0.04714560117       -0.08773014286       -0.05948070479       -0.07619560057        -0.1420850169       -0.08976518482         -0.193106648 
                   0                   38           8.42707451        -0.7091767466        -0.1220831632       -0.02302895094     -3.894688774e-06     -3.958702083e-09      -3.74652031e-11     -1.123147344e-52    -4.151769392e-105        -0.7241545281        -0.6241637212        -0.6791673823        -0.2074760011        -0.4676215666      -0.006923593237        -0.3736218556      -0.003750752357        -0.2025014335     -0.0001896494726        -0.1672869652     -4.229509041e-06 
                   1                    1          -1.21079211         0.4123213341        0.07098017947        0.01338922606       2.26440486e-06      2.301622737e-09      2.178258467e-11      6.530073264e-53     2.413873696e-105         0.4227400162         0.3643843188         0.3965084346         0.1252555863         0.2654115099       0.003392778078         0.2059698078        0.00218174432        0.08912204518      0.0002209685497         0.0654912307      1.047153513e-05 
                   1                    1          14.90791363                   -0                   -0                   -0                   -0                   -0                   -0                   -0                   -0       0.008936489437       -0.01173199116       0.009309167141      -0.009448667215        0.01334078612      5.208322717e-05        0.01736697215     -5.218947832e-06        0.04224156509     -2.447359033e-05        0.06945764325     -1.771321477e-06 
                   0                   39           4.99317152        -0.1363864439       -0.09950018687        -0.1809920131        -0.2390717527        -0.1774148475        -0.1346924973     -3.991998476e-05     -4.378927294e-10         -1.586733321         -1.454330362        -0.9212525622         -1.366702046        -0.1220635451        -0.4408234238       -0.00536248415        -0.2346848842         0.1585007139        -0.2223210648      -0.008528489841        -0.3927260635 
                   1                    2          -0.05205225         0.2176082102          0.158755203          0.288777586         0.3814453602         0.2830701229         0.2149054732       6.36934008e-05      6.986695333e-10          2.575561399          2.880044657          1.401959171           2.29496493        0.09146803862         0.9435686533        0.02742810629         0.6188276474        0.03180667472         0.1240399678       -0.06410134091       -0.05353303118 
                   1                    1          14.95007814      -0.006961248033      -0.005078550773      -0.009237943735       -0.01220236939      -0.009055363002      -0.006874787955      -2.03754059e-06      -2.23503144e-11         0.1248764825        -0.1626640183         0.1925984664       -0.09570782449        0.07182305336        -0.1708296474        0.06298602576        -0.1698358066        0.06866524116        -0.2528256873        0.09175665107        -0.3682282429 
                   0                   40           6.38581812        -0.4661536456       -0.09886866726       -0.03408024198     -5.946924336e-05      -3.31578933e-07     -9.718278118e-09     -1.758846667e-40     -1.071459132e-80        -0.7882353568        -0.7790932357        -0.7130864045        -0.2885582173         -0.454856447       -0.01785042577        -0.3536593034      -0.002825845119        -0.1565956412      1.406763982e-07        -0.1120687304      3.929734675e-13 
                   1                    3          -2.43588173         0.7777596198         0.1649586092        0.05686158693      9.922216964e-05      5.532268325e-07      1.621457724e-08      2.934568738e-40       1.78768879e-80          1.312383141          1.083711271          1.186808893         0.4417582865         0.7611929032        0.03083022067         0.6039099939       0.006511790825         0.3077599482      1.832451233e-07         0.2687829431      3.451200803e-13 
                   1                    1          15.08034036       -0.03622651179      -0.007683447237      -0.002648500767     -4.621573307e-06     -2.576821663e-08     -7.552430838e-10      -1.36686434e-41     -8.326702414e-82       -0.05731692006        0.02856185331       -0.05264617724      -0.002872721591       -0.04043544805      -0.002038000946       -0.03658520237     -0.0006762449792       -0.03476589285     -4.114241186e-08        -0.0453456393     -9.205144245e-14 
                   0                   41             7.151546        -0.6895215618        -0.1717702028       -0.08734736191     -0.0007011903679      -1.19855339e-05     -7.398312669e-07     -3.794165135e-32     -2.662259169e-64         -1.630042237         -1.493062858         -1.421360012         -0.674104411        -0.8359230273       -0.07682542381        -0.6528743161       -0.03058900099        -0.2257496601      -0.004298637198        0.03560575523      -0.002722872888 
                   1                    4          -1.18596711         0.5664954495         0.1411225459        0.07176263338      0.0005760822789      9.847045821e-06      6.078287748e-07      3.117200974e-32      2.187252419e-64          1.336659664          1.202858632          1.165863115         0.5482223352         0.6467101395        0.06932440673         0.4793724409         0.0402104199         0.2664763244       0.004752685205         0.3254132362        0.00308143129 
                   1                    1          15.06637231        -0.0366097212      -0.009120032767        -0.0046376542     -3.722926926e-05     -6.363645154e-07     -3.928088391e-08     -2.014488531e-33     -1.413510053e-65       -0.07702557433       -0.07224676378       -0.06757249423       -0.03163696874       -0.04302360085       -0.00617920075       -0.03135210186      -0.004959405191       0.006747803591     -0.0006897080854        0.02411580162     -0.0007002956958 
                   0                   46           9.25317172        -0.6961213078        -0.1073109993       -0.01403538288     -5.865369476e-07     -2.170556914e-10     -1.051335774e-12     -5.180241502e-60    -1.148884241e-119        -0.5333476454        -0.4641641044        -0.5076962957        -0.1468794757        -0.3554359585     -0.0004175877858        -0.2790611104     -1.212976592e-05        -0.1085570963     -7.579324875e-14       -0.04355823989     -5.289964036e-24 
                   1                    2          -0.05205225         0.1803995627        0.02780960318       0.003637263942      1.520008189e-07      5.624989691e-11      2.724532516e-13      1.342457544e-60     2.977328985e-120         0.1385312405         0.1206912936         0.1318287177        0.03888318483        0.08995663062      0.0001132098791        0.06821145574      5.339860114e-06        0.03022573063       5.59219837e-15        0.01604483934     -1.964685319e-24 
                   1                    1          14.95007814      -0.005770949999     -0.0008896242713     -0.0001163554281     -4.862479225e-09     -1.799424221e-12     -8.715731175e-15     -4.294497864e-62    -9.524422591e-122     -0.0004014545959      -0.001586279316      2.651102128e-05       -0.00238321838       0.002868243335     -4.639721324e-06       0.004672100953     -7.178287724e-08       0.009461739043     -5.483505456e-16       0.007798883833     -4.301631479e-26 
                   0                    8          -0.09292589         0.9092325462         0.1968793749        0.07160755061      0.0001541166679      1.002058221e-06      3.252824998e-08      4.514180833e-39      3.503902196e-78          1.610743154          1.428146202           1.45880308         0.5618792976         0.9382852452        0.04169672183         0.7349341826        0.01082245601         0.3132296445      6.129001373e-07         0.2140733257      4.104704625e-12 
                   1                    1           1.26600789                   -0                   -0                   -0                   -0                   -0                   -0                   -0                   -0      0.0002437001138      -0.006912667521       0.000375611416      -0.004939984718       0.002057180335     -0.0004987161454       0.005214176637     -0.0006804940392        0.03811962144     -9.526247949e-07        0.05119493082     -1.806472637e-11 
                   1                    1          14.90791363                   -0                   -0                   -0                   -0                   -0                   -0                   -0                   -0        0.02437410937        -0.0183870366        0.02661924288       -0.02622157056         0.0445313138     -0.0001453373965        0.05956538902      -0.000128662853         0.1371646406     -5.092338935e-08         0.2108466892     -7.100914354e-13 
                   0                   10          -2.13418228        0.05771829749       0.005980920415      0.0001528073033        1.2498743e-11      5.939386057e-17      1.667675807e-20      9.043827447e-92     4.437077224e-181        0.01198735814        0.01003938155         0.0117140665       0.002295650246       0.009641085253      4.258973745e-07       0.008196240611      1.220955896e-09       0.004058277808      7.330469142e-26       0.002296337636      1.552315623e-45 
                   1                    3           0.04091827        0.01122158511       0.001162809896      2.970877926e-05      2.430004253e-12       1.15473479e-17      3.242293487e-21      1.758299947e-92     8.626560708e-182       0.002329315804       0.001952623968       0.002276413284      0.0004475931161       0.001873750474      8.968577181e-08       0.001589575605      2.118465932e-10      0.0007697402283      1.256445658e-26      0.0004377174896      5.800699732e-46 
                   1                    1          15.08034036      -0.001579395658     -0.0001636610944     -4.181398305e-06     -3.420139068e-13     -1.625245539e-18      -4.56340544e-22     -2.474740667e-93    -1.214155789e-182       -0.00032636651     -0.0002730186625     -0.0003188898098     -6.242351836e-05     -0.0002622363493     -1.164304748e-08     -0.0002227936628     -3.192956402e-11     -0.0001113316064     -2.021458511e-27     -6.655971144e-05     -4.248055868e-47 
                   0                   11           -1.3684544         0.5998973534        0.08404198651       0.007782403383      8.811576679e-08      1.280206733e-11      3.340749371e-14       7.75613096e-67      3.87790865e-133         0.3462784488         0.2902328535         0.3338274088        0.07862214685          0.255169248      0.0002708474673         0.2090016331      2.313801315e-05         0.1007433596      1.310127718e-09        0.07752645963      8.643077842e-15 