ITEM: TIMESTEP
0
ITEM: NUMBER OF ATOMS
4
ITEM: BOX BOUNDS pp pp pp
0.0000000000000000e+00 4.2600002000000003e+00
0.0000000000000000e+00 2.4767999999999999e+00
0.0000000000000000e+00 3.0000000000000000e+01
ITEM: ATOMS id type c_1[1] c_1[2] c_1[3] c_1[4] c_1[5] c_1[6] c_1[7] c_1[8] c_1[9] c_1[10] c_1[11] c_1[12] c_1[13] c_1[14] c_1[15] c_1[16] c_1[17] c_1[18] c_1[19] c_1[20] c_1[21] c_1[22] 
1 1          13.95725197          12.59778222          8.787491849           6.10812279          1.189880751         0.3637733581      0.0001958014445      2.769001363e-08          48.63844918          43.36056749          46.05269412          35.29123032          36.16341589          14.63790016          21.50453629          4.215411246           15.3398604           2.52136962          5.128567359         0.8665006316          3.249371905         0.6522494829 
2 1          13.95847107           12.5990417          8.792719579          6.120532046           1.21853802         0.3813705368       0.000203651555      2.784170471e-08          48.60982857          43.37191619          45.99286378          35.33905819          36.09402517          14.74445419          21.39637179          4.301935586          15.22621163          2.607680617          5.053772975         0.9558107079          3.202217376         0.7744403973 
3 1           13.9622179          12.60287806          8.792717077          6.113140584          1.192116991         0.3611794633      0.0001371919229        1.1016411e-08           48.6020561           43.3849308          45.99792142          35.33395068          36.16552546          14.67111005          21.44991948          4.262033348          15.24679003          2.586331033          4.984012242         0.9835595535          3.134714866         0.8568045323 
4 1          13.96490537          12.60577719          8.791530558          6.103675677          1.162479322         0.3433261853      0.0001293418121      1.086471992e-08          48.64367311          43.36330753          46.06445444          35.27760141          36.24640357          14.57986966          21.56471213          4.192830031           15.3633726          2.520873934          5.058146469         0.9277884059          3.188078185          0.775443699 
