ITEM: TIMESTEP
0
ITEM: NUMBER OF ATOMS
4
ITEM: BOX BOUNDS pp pp pp
0.0000000000000000e+00 4.2600002000000003e+00
0.0000000000000000e+00 2.4767999999999999e+00
0.0000000000000000e+00 3.0000000000000000e+01
ITEM: ATOMS id type c_1[1] c_1[2] c_1[3] c_1[4] c_1[5] c_1[6] c_1[7] c_1[8] c_1[9] c_1[10] c_1[11] c_1[12] c_1[13] c_1[14] c_1[15] c_1[16] c_1[17] c_1[18] c_1[19] c_1[20] 
1 1          13.96210118          12.60290327          6.111126122           1.18647335         0.5560866486         0.3587869672      0.0001533260324      1.522718483e-08          49.40091814            45.907844          41.32171289           23.4232731          21.52031558          4.244161643          15.34155825          2.558058208          5.095814946         0.9222329222          3.233238311         0.7203586289 
2 1          13.96126073          12.60192189           6.11617801          1.202315839         0.5690669662         0.3690861241      0.0001587150646      1.534748328e-08          49.39926491          45.91663794           41.2827462          23.46942088          21.46337899          4.276601593          15.28311725          2.588359821          5.059223567         0.9750095155          3.225552571         0.8246848891 
3 1            13.961833          12.60264671          6.114758018          1.195762971         0.5625154256         0.3631305146      0.0001286641444      7.845210067e-09          49.40039752          45.92319431          41.29477623          23.46173497          21.47011115          4.265612686          15.28126853          2.582491796          5.035536906          0.975653829          3.202464992         0.8257567106 
4 1           13.9622739          12.60308303          6.108476074           1.17867767         0.5489787984         0.3525663664       0.000123275112      7.724911611e-09           49.3978254          45.89585054          41.33519567          23.40421482          21.53045173          4.224281306           15.3458293          2.542242989          5.087564865         0.9184141794          3.221205453         0.7318620811 
