ITEM: TIMESTEP
0
ITEM: NUMBER OF ATOMS
4
ITEM: BOX BOUNDS pp pp pp
0.0000000000000000e+00 4.2600002000000003e+00
0.0000000000000000e+00 2.4767999999999999e+00
0.0000000000000000e+00 3.0000000000000000e+01
ITEM: ATOMS id type c_1[1] c_1[2] c_1[3] c_1[4] c_1[5] c_1[6] c_1[7] c_1[8] c_1[9] c_1[10] c_1[11] c_1[12] c_1[13] c_1[14] c_1[15] c_1[16] c_1[17] c_1[18] c_1[19] c_1[20] 
1 1          13.95961574          12.60002387          6.103088364          1.174899754         0.5504008704         0.3562545229      0.0002428805121      5.617005983e-08          49.34090075          45.88610038          41.28756557          23.41642064          21.42203611          4.209845719          15.20908816           2.53570107          4.959431605         0.8548899805          3.033761784         0.6152431002 
2 1          13.95843018          12.59886837          6.101388099          1.171598559         0.5471425495         0.3533411585      0.0002251672236       4.77572489e-08          49.34774365          45.88846611          41.29134927           23.4062133          21.42219305          4.196610804          15.20964287          2.523581723          4.962179953         0.8310832525          3.023489788          0.579061683 
3 1           13.9470848          12.58747072          6.102570018          1.192940887         0.5640249768         0.3666003968      0.0002329449133      4.796992096e-08          49.30083768          45.85061623          41.24063208          23.43739718          21.34518309          4.159610552          15.15529221          2.455577848          4.915978238          0.761397732          3.026658813         0.5234515219 
4 1          13.94965998          12.59002432          6.105514858           1.19644826         0.5673045088         0.3695142014      0.0002506582018      5.638273189e-08          49.30635051          45.85378695          41.23671864          23.45307133          21.34497442          4.179611218          15.15360754          2.475335553           4.91434088         0.7975631379          3.041851729          0.579121378 
