ITEM: TIMESTEP
0
ITEM: NUMBER OF ATOMS
4
ITEM: BOX BOUNDS pp pp pp
0.0000000000000000e+00 4.2600002000000003e+00
0.0000000000000000e+00 2.4767999999999999e+00
0.0000000000000000e+00 3.0000000000000000e+01
ITEM: ATOMS id type c_1[1] c_1[2] c_1[3] c_1[4] c_1[5] c_1[6] c_1[7] c_1[8] c_1[9] c_1[10] c_1[11] c_1[12] c_1[13] c_1[14] c_1[15] c_1[16] c_1[17] c_1[18] c_1[19] c_1[20] 
1 1          13.95473927          12.59507929          6.111505748          1.201544431         0.5658587238         0.3653184418      0.0001308792258      8.193384903e-09          49.29553559          45.90475587          41.21092645          23.48704798           21.3259823          4.277294728          15.12115058          2.608723566          4.892797108         0.9327412514          2.994607527          0.730519123 
2 1          13.96423539          12.60539793          6.089637248          1.124900783         0.5042284823         0.3158253903      6.971142801e-05       2.90296261e-09          49.32429005          45.80814913          41.37919225          23.25525739          21.61489905           4.11154795          15.40193456          2.454501379           5.07373291         0.8868753197          3.159143253         0.7477773722 
3 1          13.94255137           12.5826743          6.091496823          1.178280852         0.5552575017         0.3613801089      0.0003363945358      1.146142352e-07          49.27523164              45.7527          41.27029953          23.31070152          21.47131958          4.085694464          15.30518904          2.372212933          5.042921576         0.7212634125          3.162238597         0.4765269368 
4 1          13.94935492          12.58941316          6.124777848           1.25023475         0.6144366213         0.4096607896      0.0003975623319      1.199046575e-07          49.32352166          45.89902092          41.13617381          23.60857294          21.20562794          4.325803975          15.02497294          2.610795306          4.875460806         0.9030978237          3.038646381         0.6386505402 
