ITEM: TIMESTEP
0
ITEM: NUMBER OF ENTRIES
582
ITEM: BOX BOUNDS pp pp pp
0 4.26
0 2.4768
0 30
ITEM: ENTRIES c_2[1] c_2[2] c_2[3] c_2[4] c_2[5] c_2[6] c_2[7] c_2[8] c_2[9] c_2[10] c_2[11] c_2[12] c_2[13] c_2[14] c_2[15] c_2[16] c_2[17] c_2[18] c_2[19] c_2[20] c_2[21] c_2[22] c_2[23] c_2[24] c_2[25] 
                   0                   99           0.77398487       -0.01938048909      -0.002124739389     -0.0004699144089     -7.095629808e-05     -1.698582676e-11      -7.58883009e-20     -2.339123214e-87    -3.884967771e-172       -0.00499427958      -0.003671527467      -0.004958638463      -0.002368735513      -0.004737128366     -0.0002812875354      -0.003935281067     -3.435511368e-07      -0.003337450321      5.349887417e-10      -0.002233159796     -4.220475252e-25      -0.002161364978     -4.042132925e-43 
                   1                    2          -4.96074303         0.1750371194        0.01918982852       0.004244086109      0.0006408499789      1.534094509e-10      6.853939304e-19      2.112606073e-86      3.50875339e-171         0.0454516769        0.03312691864        0.04514302818        0.02129575971        0.04322062364         0.0024399726        0.03620326912      3.299829385e-06        0.03095517989      9.557734577e-09        0.01950231749      4.757290661e-24        0.01618139781      9.927483959e-43 
                   1                    1          14.97591107       0.002156383612      0.0002364106074      5.228535388e-05      7.895001909e-06      1.889939841e-12      8.443764636e-21       2.60264173e-88     4.322636439e-173      0.0005435794115      0.0003971726759       0.000539887139      0.0002539444241       0.000516902007      2.917705569e-05       0.000432945217      4.691737786e-08      0.0003700379995      1.641265558e-10       0.000255668356       5.95027797e-26      0.0002427722665      9.715777824e-45 
                   0                   77          -3.48601533         0.5159652412         0.0817186083        0.03543671993        0.01172765706      6.975498165e-07      1.908211583e-12      2.672102423e-58     3.867088606e-116         0.4238145237         0.3396254335         0.4176890861         0.2454822966         0.3816915379         0.0463274905         0.2747021053      0.0005219156203          0.211531606      2.078217823e-05        0.09753468705      1.924909038e-14        0.06311178752     -8.349276031e-25 
                   1                    2          -2.48394303          0.540805844        0.08565286458        0.03714278346        0.01229227275      7.311326173e-07      2.000080419e-12      2.800747978e-58     4.053265511e-116         0.4464182645          0.360001546         0.4401696244         0.2605614691         0.4036410466        0.04707107853          0.297444429      0.0005308254162         0.2347012998      1.938409951e-05        0.08364428246      9.116141483e-14        0.02122632444      3.418586626e-24 
                   1                    1          14.97591107        0.01107089476       0.001753409029      0.0007603539263      0.0002516364412      1.496709467e-08      4.094386197e-14      5.733441394e-60     8.297483545e-118       0.008216918232       0.006743825416       0.008099112952       0.005017869283        0.00740348616      0.0008942602931       0.005160201354      1.245172168e-05       0.003456983722      3.355582767e-07       0.000232811665       4.27172052e-15      0.0009110986858      2.201096238e-25 
                   0                   79          -1.50542911         0.2084482908        0.03149029637        0.01265314231       0.003837255631      1.225926004e-07       1.59421904e-13      6.205624418e-62     5.791047084e-123         0.1500545024         0.1221172679         0.1480345798        0.08900836293         0.1360833977        0.01535462009         0.1004299211      9.557839769e-05        0.07898413394      4.936364698e-07        0.01875331442      6.761188005e-15      -0.006549483885      2.275512272e-25 
                   1                    4          -3.81121977         0.6644426634         0.1003773949        0.04033272495        0.01223150519      3.907719924e-07      5.081678247e-13      1.978083678e-61      1.84593442e-122         0.4786797184         0.3850318547          0.472178103         0.2785689137         0.4334841266        0.04964368372         0.3147443214      0.0003487590176         0.2430369928      8.333777773e-06        0.09508594978       1.35216949e-14         0.0435866015      1.778685209e-25 
                   1                    1          15.07379487      -0.002785332078     -0.0004207802918     -0.0001690740809     -5.127425684e-05     -1.638109389e-09     -2.130230675e-15     -8.292092341e-64    -7.738124955e-125      -0.004537514469      -0.003153379235       -0.00452611877      -0.001849605593      -0.004454792241     -9.045519613e-05      -0.004130750848     -1.672220866e-06      -0.003750821764     -9.799159355e-08      -0.002886309794      7.864851021e-17      -0.002312667239      8.480889955e-27 
                   0                   68           0.08528851                   -0                   -0                   -0                   -0                   -0                   -0                   -0                   -0      0.0005633332695      -0.007837908072      0.0007750053561       -0.01177785087       0.002667132902      -0.002229185748        0.01130939775      0.0004298352277         0.0164544067      8.137910576e-05        0.03723650529     -3.993858046e-05        0.04593635776     -3.138259359e-06 
                   1                    1          -3.69430253         0.8137120297         0.1388539779        0.06751915073        0.02547174737      3.870552671e-06      3.272168883e-11      3.518983774e-53     3.615938187e-106         0.8114629667         0.5561144897         0.7976416445         0.4229928744         0.7222795043        0.09893342682         0.5230920559       0.005151012103         0.4130428791       0.002649395798         0.2191508564      0.0001701138342         0.1866595015      5.574356192e-06 
                   1                    1          15.05253935                   -0                   -0                   -0                   -0                   -0                   -0                   -0                   -0      -0.004316412174      -0.002188717076      -0.004357176564     -0.0005383009571      -0.004609578015      0.0003207007846      -0.005278636983     -2.244168213e-05      -0.005605743315     -8.270930604e-06      -0.005330689596      4.443793963e-06      -0.005471026045      3.491806126e-07 
                   0                   69           0.77398487        -0.1604398328        -0.0408330956       -0.03266808548       -0.02176264505     -0.0002102906647     -2.784535999e-07     -8.727832771e-32     -5.879365927e-63        -0.3833032234        -0.3153682928        -0.3666838216        -0.2479399457        -0.2949288769        -0.1013015748        -0.1349165754       -0.02252434232       -0.06725267368       -0.01940180238        -0.1124435471      -0.001881134816         -0.308989381      -0.001382784461 
                   1                    2          -2.48394303         0.8720314422         0.2219382968         0.1775593828         0.1182855305       0.001142983438      1.513466388e-06      4.743799881e-31      3.195585447e-62          2.133901008          1.837225965          2.050858352          1.440213489          1.689307331         0.5070695744          1.099464492         0.1010107035         0.8507702263        0.04432565812         0.3489250251       0.005562182626         0.1340670692       0.003486645603 
                   1                    1          14.97591107        0.01785144971       0.004543322812       0.003634837276       0.002421435853      2.339813723e-05      3.098233367e-08        9.7110839e-33      6.541717434e-64        0.03677544245        0.02808269861          0.035184297        0.02029585744        0.02915113201        0.00890266851        0.01858273689       0.002780353257        0.01439916457          0.002274112        0.01901845759      0.0002098508866        0.03750349066      0.0001538565438 
                   0                   71           2.75457109        -0.2344912928       -0.03078298352       -0.00969185966      -0.002219024743     -9.798275585e-09     -1.227428258e-15     -4.762100837e-72    -4.652314159e-143        -0.1122446733        -0.0855080406        -0.1113041962       -0.05741214882        -0.1055832741      -0.007301656577       -0.08621283504     -3.500171321e-05       -0.07235423872     -6.248921662e-07       -0.03676426256     -3.665439319e-18       -0.02623261736     -8.857922036e-32 
                   1                    4          -3.81121977         0.4454350962         0.0584747564        0.01841046799       0.004215216216      1.861261361e-08       2.33159883e-15      9.045994071e-72     8.837445435e-143         0.2136754192         0.1578424957          0.211908393         0.1043802791         0.2011263829        0.01375116581           0.16413113      6.356757297e-05         0.1372103137      1.375845016e-06        0.07127635894      4.844670226e-18        0.05609711176      4.279877781e-32 
                   1                    1          15.07379487      -0.001867256169     -0.0002451251609     -7.717636131e-05       -1.7670113e-05     -7.802375223e-11     -9.774021707e-18     -3.792064967e-74    -3.704641742e-145      -0.001773579152        0.00370001259      -0.001779142597       0.004436314492      -0.001820888265       5.08933783e-05      -0.002076610041     -8.927224208e-07      -0.002396276648     -1.962997138e-08      -0.004763285135      5.492870423e-20      -0.007882045142      3.150848309e-33 
                   0                   73           5.03398507        -0.1696911606        -0.0189466586      -0.004352676155     -0.0006879536403     -2.277283403e-10     -1.463250346e-18     -6.698799874e-85    -3.072692891e-168       -0.04752968991       -0.03537883758       -0.04719952269        -0.0231931897       -0.04513997669      -0.002613124293       -0.03756282878     -3.435367434e-06        -0.0318020328     -8.110944525e-09       -0.01843586543     -9.193942082e-29        -0.0139939318     -8.780381703e-54 
                   1                    2          -2.48394303         0.1283559857         0.0143314303       0.003292405075       0.000520374587      1.722558528e-10      1.106816288e-18      5.067035064e-85     2.324213726e-168        0.03586158895        0.02663623795        0.03560988356        0.01743861254        0.03404237265       0.001989601116         0.0283076346      2.749467414e-06        0.02395375633      4.806601086e-09        0.01398296985     -1.889878179e-29        0.01100374199     -5.131865878e-54 
                   1                    1          14.97591107       0.002627589226      0.0002933802554      6.739917938e-05       1.06526443e-05      3.526268142e-12      2.265775561e-20      1.037278213e-86     4.757922987e-170      0.0007065684394      0.0005640515302      0.0007010582869      0.0003955524744      0.0006664414412      4.384974818e-05      0.0005344166043      5.516188155e-08       0.000427212229      1.856791466e-10       0.000145969932      4.876379049e-30      3.004959734e-05      5.965469686e-55 
                   0                   50          -5.76542931          0.068378073       0.007138978855       0.001422433432      0.0001891914516      1.800398999e-11      2.855231728e-20      5.148170137e-91     1.039819049e-179        0.01512707563        0.01096383288        0.01503545153       0.006968884919        0.01446183743      0.0007271846029        0.01231990475      7.500737416e-07        0.01065417502      1.075255823e-09       0.006696633525      6.761979584e-31       0.005480496607       2.21613041e-57 
                   1                    4          -1.33441977         0.0303130987       0.003164824061       0.000630587601      8.387161111e-05      7.981458117e-12      1.265770113e-20      2.282266561e-91      4.60968496e-180        0.00670810234       0.004858684457        0.00666749611        0.00308811273       0.006413140536      0.0003224116729         0.0054622027      3.187879327e-07       0.004724353422      5.211753752e-10       0.002965860776      7.712875633e-31       0.002389178755      5.603561276e-57 
                   1                    1          15.07379487     -0.0002484159282     -2.593574199e-05     -5.167667145e-06     -6.873280864e-07     -6.540807148e-14      -1.03729896e-22     -1.870318082e-93    -3.777638108e-182      -6.54614041e-05     -2.774749333e-05     -6.521985375e-05     -6.202748655e-06     -6.373548175e-05     -1.889855529e-06     -5.885695331e-05      -1.90332809e-09     -5.649882181e-05     -3.192104693e-12     -7.252760044e-05     -2.456609844e-33     -9.911981738e-05     -8.051149567e-60 
                   0                   42          -4.17471169         0.7091767466         0.1220831632        0.06014235769        0.02302895094      3.894688774e-06       3.74652031e-11      1.123147344e-52     4.151769392e-105         0.7261697152         0.5771899902         0.7138169088          0.415264045         0.6470307398         0.0878776984         0.4733210758       0.004953980068         0.3771149261       0.002582394199         0.1741333795      0.0001745422111         0.1257112441      5.961700389e-06 
                   1                    1          -1.21750253         0.4123213341        0.07098017947        0.03496727337        0.01338922606       2.26440486e-06      2.178258467e-11      6.530073264e-53     2.413873696e-105         0.4237574237         0.3205538214         0.4167113056         0.2217004447         0.3794517438        0.04931628677         0.2865519529       0.003451509858         0.2360110133       0.001587071863         0.1508076662      4.667603386e-05         0.1394065903     -2.447092928e-07 
                   1                    1          15.05253935                   -0                   -0                   -0                   -0                   -0                   -0                   -0                   -0      -0.004705492589        0.02475345136      -0.004750069822        0.02827545464      -0.005054753484      0.0003789799032      -0.006735183963     -1.122441944e-05      -0.009255417623     -6.184790976e-06       -0.03142856931      5.184981275e-06       -0.05526767854      3.510844035e-07 
                   0                   43          -3.48601533         0.8338189545         0.2135217876         0.1718876299         0.1153214518       0.001174378457      1.658308666e-06      8.677677385e-31      1.109024109e-61          2.056662244          1.759975639          1.972751464          1.376518335          1.616148957         0.5042745973          1.044074116         0.1097075825         0.8092173801        0.05391610778         0.3929391458       0.007306571515         0.2828601138       0.003857557207 
                   1                    2          -0.00714303          0.295685313         0.0757181835        0.06095405647        0.04089480024      0.0004164530679      5.880623296e-07      3.077240856e-31      3.932773883e-62         0.7353653845         0.6450586974           0.70645308         0.5062432752         0.5820367428         0.1748187541         0.4155015974        0.03542696719         0.3425281486       0.007399397037         0.1356653796       0.001437536658        -0.1125718519      0.0002709284931 
                   1                    1          14.97591107        0.01789097629       0.004581466059       0.003688135768       0.002474414079      2.519824839e-05       3.55817781e-08      1.861940407e-32      2.379596186e-63        0.03742175684        0.03748222611        0.03580935484        0.03140735699        0.03024233919       0.008517217776        0.02186969912       0.003217793861        0.01805473039       0.002357006631       -0.01086884106      0.0004769360881       -0.04340570125      0.0004957552635 
                   0                   44           -2.0897686          0.459892264        0.09834240296         0.0648406892        0.03463022678      6.568303389e-05      1.188237585e-08      4.831322139e-40      8.090357121e-80         0.7757510627         0.6860092012         0.7522733144         0.5369724057         0.6490368963         0.1463679519         0.3972968028         0.0220548875         0.2710676835        0.01821061056        0.09447989646        0.01684516433         0.0640212879        0.01576158881 
                   1                    3          -2.44245091         0.7826945948         0.1673697804          0.110352926        0.05893748045      0.0001117865196      2.022271753e-08      8.222468651e-40      1.376904828e-79          1.325480855          1.092526591          1.286012975         0.8344208358          1.112402918         0.2455402616         0.6990341964        0.03769453303         0.4925584347        0.03086538625           0.21865672         0.0273310435         0.2012859832        0.02425866914 
                   1                    1          14.90934898        0.03027605259       0.006474167966       0.004268652181       0.002279809097      4.324106196e-06      7.822515493e-10      3.180600645e-41      5.326118677e-81        0.05231893768        -0.0358609994         0.0507265826       -0.04807544706        0.04865196409       0.007139820303        0.03841910471        0.00146856156        0.03550147441       0.001686149972        0.06000264512        0.00537382169         0.1003961535         0.0092177541 
                   0                   45          -1.50542911         0.3824870478         0.1305404697         0.1341957748         0.1191336365       0.009769467124      0.0001787858499      6.985897004e-20       1.09202376e-39          1.506362422          1.441412253          1.388230111          1.229677028           1.07185563         0.5856121947         0.4766165176         0.2190340981         0.2356227285         0.1803467292         0.0248109811         0.1567113741        0.05788013383         0.1848071972 
                   1                    4          -1.33441977         0.6236576735         0.2128505164         0.2188106111         0.1942513008        0.01592943649      0.0002915161908      1.139073414e-19      1.780580548e-39          2.549316201           2.42643965          2.360807226          2.062378477          1.755673687         0.9518913395         0.8634673103         0.3584023836          0.515857671         0.2846653096        0.09075091767         0.1847807406        0.03906053588         0.1495477454 
                   1                    1          15.07379487       -0.00511087637      -0.001744310574      -0.001793153567      -0.001591889951     -0.0001305417764     -2.388975995e-06     -9.334709795e-22     -1.459186255e-41        -0.1382654889        0.06215276403        -0.1420569515         0.0821826447        -0.0690867947     -0.0008945692349       -0.07261142814       0.002002356471       -0.07642117931       0.009059605512       -0.08635856444        0.05908718195        -0.1339177738         0.1156854316 
                   0                   34           0.08528851                   -0                   -0                   -0                   -0                   -0                   -0                   -0                   -0        0.03357923815        -0.1334928824        0.05226415104        -0.2107471927        0.04245820381       -0.03395834566         0.3010921274       -0.08716544888         0.4690764605        -0.1599334504         0.5668103772       -0.06027568686         0.5694628601      -0.005960301363 
                   1                    1          -1.21750253         0.5572350607         0.2433932895         0.2899488464         0.3048959963        0.08916197783       0.007813167168      8.180428237e-13      7.761829956e-26          3.225770108          3.261678675          2.957280633          2.867370844          1.979833294          1.605327858          0.870702171         0.6464544143         0.5283285558         0.4311121179        0.07438042877         0.1680363334         0.0311354586         0.1519456857 
                   1                    1          15.05253935                   -0                   -0                   -0                   -0                   -0                   -0                   -0                   -0       -0.06343997152       -0.02564859453       -0.06773361575       0.001237036463       -0.07210677799        0.01334895723       -0.09383778397        0.01566331818        -0.1035800399        0.02181121366       -0.07684383911       0.007096293009       -0.06618028151      0.0006725539057 
                   0                   35           0.77398487        -0.1069291527       -0.08445589367        -0.1215436983        -0.1588963403        -0.2406719567        -0.1605732008     -0.0001835990839     -1.088507335e-08         -1.367561065         -1.728415115         -1.144830003         -1.653775874        -0.3476400719         -1.131330273        0.09994658884        -0.5946190995        0.09322424094         -0.386354089         0.0398977689        0.08470021341         0.1787636484          0.357502153 
                   1                    2          -0.00714303         0.1966315163          0.155305546         0.2235061357         0.2921937335         0.4425705302         0.2952773044      0.0003376194926      2.001651022e-08          2.371930695          2.563159332          1.970719509          2.455587185         0.8426209213          1.917218741         0.1195980658         0.8460161953       0.006293241392         0.5187612683       -0.08534510529         0.3079521339       0.007290861683         0.3980515096 
                   1                    1          14.97591107        0.01189754662       0.009397043812        0.01352364422        0.01767971194        0.02677853283        0.01786628899       2.04282799e-05      1.211135265e-09        0.03341288525        -0.3112097695       -0.01668898755        -0.2979108128         0.0385714299        0.09528193979         0.1678548148         0.1719696271         0.2209960091         0.1724826426         0.2901258206         0.1836204486         0.2665553234         0.2724307743 
                   0                   36            2.1702316        -0.4460308219       -0.09688763367       -0.06509992557       -0.03552689763     -7.893225269e-05     -1.731855401e-08     -3.273180363e-39     -3.737021227e-78        -0.7880263293        -0.5404100128        -0.7658224013        -0.3897749441        -0.6599466168         -0.144190861        -0.4673584446       -0.01877983627        -0.3779899801      -0.004311705271        -0.1930550131     -1.747646818e-07        -0.1681528674     -2.830095247e-13 
                   1                    3          -2.44245091         0.7919131607         0.1720208301         0.1155827922        0.06307684675      0.0001401416374      3.074852717e-08       5.81142486e-39      6.634959169e-78          1.407462314          1.169445638          1.368711354         0.8707044882          1.182931049         0.2525804047         0.8402555557        0.03170025336         0.6700663129       0.005840456076         0.3334303288     -2.239115749e-08         0.2668132067     -9.928287282e-14 
                   1                    1          14.90934898        0.03063264351       0.006654079039       0.004470952936       0.002439927325        5.4209338e-06      1.189409039e-09       2.24796499e-40      2.566523061e-79        0.05763351364          0.170622656        0.05632118911         0.1395475847        0.05037196812       0.008228617196        0.03918022996        0.00151073087        0.03234369036      0.0004163638461       0.004490553748      1.682094626e-08       -0.02577172129      2.676487496e-14 
                   0                   37           2.75457109        -0.6283525622        -0.1649688563        -0.1361221895       -0.09394227481      -0.001179412733     -2.152519121e-06     -8.707729708e-30     -1.433042885e-59            -1.639528         -1.415721883           -1.5743479         -1.111186745         -1.289682301        -0.3984445467        -0.8671879112        -0.0754814113        -0.6814466824       -0.02336857249        -0.2361427095      -0.003263665185       -0.02386899336       -0.00107011726 
                   1                    4          -1.33441977         0.6105643837         0.1602987146         0.1322686749        0.09128284115       0.001146024464      2.091582958e-06      8.461220567e-30      1.392474541e-59          1.597380093          1.383265442          1.534441089           1.09466585          1.255141891         0.3893259586         0.7796108938        0.07188044968         0.5713614099        0.03112477937         0.2215971996       0.004260221464         0.1561843798       0.002282657063 
                   1                    1          15.07379487      -0.005003576824      -0.001313648413      -0.001083942159     -0.0007480631372     -9.391673671e-06     -1.714052816e-08      -6.93397261e-32     -1.141133274e-61       -0.04073988927      -0.009933872313       -0.04096347897        0.01127172048       -0.04313893033       0.002530676749       -0.06004937035     -0.0002452062253        -0.0823392548     -0.0003609893025        -0.1472896869      0.0001277259242         -0.113684253      0.0001730365087 
                   0                   38           4.34528871        -0.7091767466        -0.1220831632       -0.06014235769       -0.02302895094     -3.894688774e-06      -3.74652031e-11     -1.123147344e-52    -4.151769392e-105        -0.7308900911        -0.5733493206         -0.719066581        -0.4088237196        -0.6536688254       -0.08549398599        -0.4795886435      -0.003562944701        -0.3795605028      -0.001163125286        -0.1934908098     -2.508218005e-05        -0.1573617072     -2.157551567e-07 
                   1                    1          -1.21750253         0.4123213341        0.07098017947        0.03496727337        0.01338922606       2.26440486e-06      2.178258467e-11      6.530073264e-53     2.413873696e-105         0.4252739337         0.3417621141         0.4181136546         0.2492661799         0.3776248736        0.05262594444         0.2678723611       0.001436109085         0.2078425469       0.000540710334        0.08205947311      1.963033509e-05        0.05411037932      2.782757143e-07 
                   1                    1          15.05253935                   -0                   -0                   -0                   -0                   -0                   -0                   -0                   -0      -0.004879464213        0.02458662735      -0.004967145662        0.02812226385      -0.005492134447      0.0006729002535      -0.007603773184      2.426375383e-05      -0.009953224795      3.595475906e-06       -0.02764228503     -1.029819735e-07       -0.05060987411     -3.118299512e-09 
                   0                   39           5.03398507        -0.7449085681        -0.1206135532       -0.05414759204       -0.01864484686     -1.472085986e-06     -5.657816059e-12     -1.171894992e-56    -4.899572444e-113        -0.6573474147        -0.5306435962        -0.6474684195        -0.3859210116        -0.5897692911       -0.07436737342        -0.4240842965     -0.0008137735948        -0.3309731906     -2.795041075e-05         -0.136849512     -1.870646862e-13         -0.058864686     -1.298411576e-23 
                   1                    2          -0.00714303         0.1906324964         0.0308666912        0.01385712434       0.004771476466      3.767273441e-07      1.447914074e-12      2.999042801e-57     1.253868953e-113         0.1671054191         0.1325186963         0.1644747672        0.09549332474         0.1490087317          0.019902079         0.1035177133      0.0002205827654        0.07862672049      1.043892079e-05         0.0514985556     -5.996412729e-14        0.04816356962     -1.235447955e-23 
                   1                    1          14.97591107        0.01153456504       0.001867645149      0.0008384504473      0.0002887068399      2.279457141e-08      8.760866784e-14      1.814625255e-58     7.586761575e-115       0.008910753082       0.006980222805       0.008743296718       0.005001833083       0.007789684979       0.001236795287       0.005374001546      1.807910856e-05       0.004343410912      5.122642153e-07       0.003095338349      2.896610247e-15       0.003625274786      2.010530341e-25 
                   0                   16          -5.76542931         0.4356651275        0.05488160264        0.01600346479       0.003351500584      7.939974488e-09      4.817484145e-16      6.506445632e-75     5.512228632e-149         0.1857040745         0.1363836284         0.1842334812        0.08999190808         0.1751645855        0.01153736815         0.1429705087      3.331976004e-05         0.1189132234      5.607168311e-07         0.0608997394      5.787853316e-19         0.0488582129      1.117622112e-33 
                   1                    4           1.14238023        0.00870607092        0.00109672107      0.0003198036534      6.697437993e-05      1.586676937e-10       9.62697172e-18      1.300209118e-76     1.101530748e-150       0.003685231472      0.0005314992315       0.003655829105      0.0004500458503       0.003465322088      0.0002396299917       0.002647031259     -2.836987109e-07       0.001861838474      1.235151369e-08      -0.000530532548      4.630026595e-20      -0.001215906773     -3.742449866e-34 