ITEM: TIMESTEP
0
ITEM: NUMBER OF ENTRIES
600
ITEM: BOX BOUNDS pp pp pp
0 4.26
0 2.4768
0 30
ITEM: ENTRIES c_2[1] c_2[2] c_2[3] c_2[4] c_2[5] c_2[6] c_2[7] c_2[8] c_2[9] c_2[10] c_2[11] c_2[12] c_2[13] c_2[14] c_2[15] c_2[16] c_2[17] 
                   0                   78          -2.14301379      0.0008211754557      8.289450646e-05      1.860362034e-06      6.028782774e-23      3.107434354e-96      7.56976388e-188      0.0001548630878      0.0001158873399      0.0001478078721      7.709531352e-06      0.0001059911631      1.326743518e-11      3.192908241e-05      1.127311655e-55 
                   1                    3          -4.91842729       0.002325809605      0.0002347815415      5.269090615e-06      1.707528006e-22      8.801164986e-96     2.143979026e-187      0.0004386293655      0.0003282398581      0.0004186431339       2.18397932e-05      0.0003001960583      3.742531278e-11      9.078471185e-05      2.892783539e-55 
                   1                    1          15.07324118     -6.295101412e-05     -6.354662954e-06     -1.426146822e-07      -4.62164312e-24     -2.382147963e-97    -5.802953676e-189     -1.186809524e-05     -8.877193103e-06     -1.132750688e-05     -5.907264328e-07     -8.124777472e-06     -1.015704379e-12     -2.458022427e-06     -8.336829509e-57 
                   0                   79           -1.4910997         0.2136721995        0.03347922573       0.004631578881      5.543620808e-13       2.06197524e-59     5.702587266e-118         0.1708046374         0.1389997644         0.1543323331         0.0181226176         0.0902185745       1.30478982e-06      -0.006473478679      3.964144517e-24 
                   1                    4          -3.77594113         0.7047689454         0.1104267128        0.01527663856      1.828488591e-12      6.801147359e-59     1.880921534e-117         0.5635947563         0.4546349859         0.5076473038        0.06151245085         0.2833925426      1.491406575e-05        0.04990898201      2.484725638e-24 
                   1                    1          14.97822691        -0.0100082528      -0.001568142956     -0.0002169398378     -2.596592285e-14     -9.658144352e-61    -2.671051035e-119      -0.004190346262      -0.003870212249      -0.003281674525      -0.001002443309     -0.0007763540887     -9.183033355e-08       0.001372124844     -2.666033237e-25 
                   0                   68            0.0192368                   -0                   -0                   -0                   -0                   -0                   -0     -0.0004591682234      -0.007842905644       0.001593739735      -0.002184502839        0.01177473121      0.0001011589942        0.04595975923     -2.117695782e-06 
                   1                    1          -3.74789979         0.8137120297         0.1388539779        0.02547174737      3.272168883e-11      3.518983774e-53     3.615938187e-106         0.8121003809         0.5556442856          0.724199725        0.09725863964         0.4143487817       0.001403106219         0.1890347847       9.18203506e-06 
                   1                    1          14.90748383                   -0                   -0                   -0                   -0                   -0                   -0       0.008993341041       0.004245852102       0.009667996507     -0.0007370364025        0.01264048309      2.117871889e-05        0.01336546346     -5.473972543e-07 
                   0                   69           0.68398662       -0.02976075874      -0.003428187866     -0.0001431411457     -9.490924336e-19     -4.082572251e-83    -5.133591319e-164      -0.009180014235      -0.006803813584      -0.008661460478      -0.000567901048      -0.006004557672     -3.608754894e-08      -0.004220313318      3.900792993e-32 
                   1                    2          -4.87009757         0.2720126376        0.03133355677       0.001308306718      8.674682607e-18      3.731461472e-82     4.692090437e-163        0.08432268921        0.06194317081        0.07981787229       0.004930122898        0.05599305626      1.814740024e-07        0.02910430365      2.649835878e-31 
                   1                    1          15.07931315      -0.007692775212     -0.0008861426843     -3.700015403e-05     -2.453282462e-19     -1.055292672e-83    -1.326967648e-164       -0.00231409803      -0.001702883914      -0.002188395886     -0.0001375905273      -0.001539263251     -4.092514725e-09        -0.0011049284     -1.063695254e-32 
                   0                   70           2.11698641      -0.005986394338     -0.0006087816672     -1.417684353e-05      -6.58298137e-22      -1.45454616e-94    -1.842118847e-185      -0.001169678684     -0.0008742846454      -0.001119432859     -5.489067389e-05     -0.0008178640343     -7.214604879e-11     -0.0002596259835     -1.148349711e-53 
                   1                    3          -4.91842729        0.01747655774       0.001777264804      4.138758835e-05      1.921822178e-21      4.246372443e-94     5.377844255e-185       0.003414895902       0.002553789104       0.003268207379      0.0001602498355       0.002386840096      2.121617507e-10      0.0007533083461      1.872790972e-53 
                   1                    1          15.07324118     -0.0004730254062     -4.810394692e-05     -1.120208057e-06     -5.201657728e-23     -1.149335058e-95    -1.455582387e-186     -9.216650475e-05     -6.916900878e-05     -8.817828926e-05     -4.356832645e-06     -6.414497403e-05     -5.734944765e-12      -1.86879755e-05     -6.366627268e-55 
                   0                   71            2.7689005        -0.2533814804       -0.03371245346      -0.002561992387     -2.179646699e-15     -5.214946022e-71    -4.917693021e-141        -0.1260432647        -0.0974627315        -0.1182356386      -0.008558119496       -0.07907470314     -9.182680146e-07       -0.02481155051       -8.7539967e-32 
                   1                    4          -3.77594113         0.4590581959        0.06107777901       0.004641632062      3.948925863e-15      9.448061118e-71      8.90951968e-141         0.2286640144         0.1708202159         0.2145722647        0.01544345643         0.1430635251      1.794101327e-06        0.05167836945      3.154286614e-32 
                   1                    1          14.97822691      -0.006518974061     -0.0008673507207     -6.591469074e-05     -5.607773808e-17     -1.341696236e-72    -1.265219273e-142      -0.002071898593      -0.007197802264      -0.001735898128     -0.0003668549297      0.0005316981407     -3.530114441e-09       0.009376451121     -5.391805367e-33 
                   0                   50           -5.7510999         0.1406566818         0.0152491971      0.0004834843665      3.361894261e-19       1.95412005e-87     4.208373126e-173        0.03541094217        0.02597186946        0.03373120042       0.001836875573        0.02437109062      3.579008469e-09         0.0119016474      7.400340701e-57 
                   1                    4          -1.29914113        0.06105755863       0.006619513085      0.0002098753836       1.45936228e-19       8.48262578e-88     1.826809687e-173        0.01538354891        0.01131022617        0.01465606928      0.0007954609257        0.01060493207      1.882688738e-09       0.005034941335      8.977625045e-56 
                   1                    1          14.97822691      -0.001724420499     -0.0001869518585     -5.927413771e-06     -4.121609656e-21      -2.39570892e-89    -5.159374439e-175     -0.0003770488392      -0.000363307095      -0.000352302045     -2.704620682e-05      -0.000202385716     -4.801346473e-11       0.000231309279     -9.072657654e-59 
                   0                   42           -4.2407634         0.7091767466         0.1220831632        0.02302895094       3.74652031e-11      1.123147344e-52     4.151769392e-105         0.7240609431         0.5812006541         0.6438938772        0.08880686639         0.3663537304       0.001533327676         0.1105828774      5.839074022e-07 
                   1                    1          -1.27109979         0.4123213341        0.07098017947        0.01338922606      2.178258467e-11      6.530073264e-53     2.413873696e-105         0.4210541768         0.3209349155         0.3761819781        0.04984341561         0.2289553092       0.001018802498         0.1284360765      1.084871407e-08 
                   1                    1          14.90748383                   -0                   -0                   -0                   -0                   -0                   -0       0.009662859745        -0.0158574984        0.01043966316     -0.0008450206713        0.01783206525      1.417777949e-05        0.06445179109      -5.83300653e-08 
                   0                   43          -3.57601358         0.5473160958        0.08918307167        0.01407964618      5.099761114e-12       2.27185541e-56     2.471201351e-112         0.4856387884         0.3922835944         0.4349606775        0.05577316769         0.2372195546      3.297732887e-05        0.05547586486     -2.664026018e-23 
                   1                    2          -2.39329757         0.5478865741        0.08927602893        0.01409432167      5.105076696e-12      2.274223409e-56     2.473777133e-112         0.4871736984         0.3947498376         0.4377153481        0.05446596993         0.2487290134      3.071209193e-05        0.02288909209      1.101812593e-22 
                   1                    1          15.07931315       -0.02615810935      -0.004262364214     -0.0006729144771      -2.43735037e-13     -1.085797452e-57      -1.1810717e-113       -0.02147416418       -0.01760970888       -0.01919431984      -0.002512451019       -0.01000743152     -1.400766676e-06     -0.0009968123274     -9.881298916e-24 
                   0                   44          -2.14301379          0.463459832         0.1009422161        0.03726640932      1.927268692e-08      4.717866282e-39      7.441415562e-78         0.8186342927         0.7663165913         0.6838991125         0.1537287126         0.2928125804        0.01624394778         0.1000168903        0.01107425386 
                   1                    3          -2.44162729         0.7817733053          0.170271347        0.06286172387      3.250955339e-08      7.958191114e-39      1.255232846e-77          1.382778913          1.095800678          1.155303049         0.2585842398         0.5057633929        0.02682918239         0.2116030509        0.01127161404 
                   1                    1          15.07324118       -0.03552866349       -0.00773819386      -0.002856829491     -1.477437225e-09     -3.616699268e-40     -5.704562318e-79       -0.05467072682         0.1541709856        -0.0468074379       -0.01011331295       -0.02816136134      -0.001819789611       -0.04963966793      -0.007924166465 
                   0                   45           -1.4910997         0.3605180273         0.1291385557         0.1265277702      0.0003580572562      2.283182823e-18      1.169423259e-36          1.580777836           1.39170402          1.084795316         0.6145900518         0.2564110992         0.1918852149        0.04386687266         0.1718593303 
                   1                    4          -1.29914113         0.5979067967         0.2141718703          0.209841972      0.0005938256921      3.786580488e-18       1.93944841e-36          2.658544544          2.580694768          1.790503906          1.031061607         0.4785017879         0.2829926513        0.05029549603        0.03962427867 
                   1                    1          14.97822691       -0.01688640621      -0.006048757464      -0.005926470142     -1.677114545e-05     -1.069426483e-19     -5.477494795e-38         0.0203841914        -0.3103156383        0.01637183138       -0.03224684093        0.02797470141       -0.04193279087        0.05466517977        -0.2071280405 
                   0                   34            0.0192368                   -0                   -0                   -0                   -0                   -0                   -0        0.02327508895        -0.1265376511        0.02760201438       -0.02649881302         0.4007957701         -0.135047036         0.5929175774       -0.01173062688 
                   1                    1          -1.27109979         0.5572350607         0.2433932895         0.3048959963       0.007813167168      8.180428237e-13      7.761829956e-26          3.226577406          3.257416065          2.000076394          1.584014888         0.5285684661         0.4381463088        0.03599951654         0.1506330951 
                   1                    1          14.90748383                   -0                   -0                   -0                   -0                   -0                   -0         0.1317431951          0.046755206         0.1540919951       -0.03303289469         0.2380925068       -0.04305270886         0.1650628454      -0.003111379947 
                   0                   35           0.68398662        -0.1574403203       -0.04222998615       -0.02513802418     -8.512964463e-07      -1.91460513e-29      -2.68758253e-58        -0.4217132161        -0.3448631236        -0.3211549762        -0.1158460181       -0.07238381023       -0.02405665158        -0.3979010532       -0.00348456061 
                   1                    2          -2.39329757         0.8523919019         0.2286358293         0.1360988608      4.608973073e-06      1.036579388e-28      1.455074265e-57          2.311624746          2.014995869          1.799337757         0.5869579043         0.8695829043        0.06188872845        0.09569805687       0.006034746813 
                   1                    1          15.07931315       -0.04069630765        -0.0109159109      -0.006497857495     -2.200492352e-07     -4.949009201e-30     -6.947056842e-59       -0.09686416157       -0.07290762907       -0.07625263887       -0.02432517429       -0.03834069321      -0.006666595944        -0.1144420164     -0.0009012964927 
                   0                   36           2.11698641        -0.4532570166       -0.09985178303       -0.03794521889     -2.522895582e-08     -1.854915792e-38     -1.155947082e-76        -0.8264410915        -0.6823862054        -0.6913964189        -0.1521042319        -0.3854482891      -0.005006267845        -0.1011835737     -2.171470173e-07 
                   1                    3          -2.44162729         0.7880715475         0.1736108792          0.065974814      4.386522773e-08      3.225115785e-38        2.0098288e-76          1.439938868          1.178756103          1.207162725         0.2623165566         0.6751289367       0.008172454894         0.2541645925      5.021019307e-07 
                   1                    1          15.07324118       -0.03581489497      -0.007889963068      -0.002998307757     -1.993510017e-09     -1.465694117e-39     -9.133917805e-78       -0.05732382867       -0.09554454281       -0.04711914195       -0.01153400706      -0.007516421065     -0.0008277006276         0.1806022818     -1.715854137e-08 
                   0                   37            2.7689005        -0.6474010617        -0.1700792115       -0.09698282364     -2.248685002e-06     -9.582728768e-30     -1.683004614e-59         -1.689382481         -1.464948557         -1.330440286        -0.4096101696        -0.6926424881       -0.02845779846        0.02226660114      -0.001894567428 
                   1                    4          -1.29914113         0.5897582832         0.1549358345        0.08834774446      2.048468383e-06      8.729509419e-30      1.533154594e-59          1.539824069          1.326323294          1.207827182          0.379133345         0.5590869975        0.03777513779         0.2292340025       0.002928817558 
                   1                    1          14.97822691       -0.01665627149      -0.004375781396      -0.002495164646     -5.785394881e-08     -2.465435129e-31     -4.330017888e-61        -0.0100263805       -0.03592154081        0.00331511546       -0.01524682898        0.07074986552      -0.002053825796          0.111500041      -0.000450066296 
                   0                   38             4.279237        -0.7091767466        -0.1220831632       -0.02302895094      -3.74652031e-11     -1.123147344e-52    -4.151769392e-105        -0.7254968995        -0.5730419529        -0.6491223396       -0.08469503004        -0.3793677385      -0.001703198486        -0.1574349597     -1.261503404e-06 
                   1                    1          -1.27109979         0.4123213341        0.07098017947        0.01338922606      2.178258467e-11      6.530073264e-53     2.413873696e-105          0.422779224         0.3344844342         0.3758585836        0.05192317712         0.2104153004        0.00084273675        0.06125095992      1.784217622e-06 
                   1                    1          14.90748383                   -0                   -0                   -0                   -0                   -0                   -0       0.009848435775       -0.01759943036        0.01096381349      -0.001217306279        0.01909771417      4.859479034e-06        0.06216477262     -8.203223025e-08 
                   0                   39           4.94398682        -0.2274752698       -0.02631449838      -0.001119455224     -8.635726309e-18     -6.847059532e-82    -1.836254677e-162       -0.07195716567       -0.05354545875       -0.06815313899      -0.004161273677       -0.04753680462     -1.656278904e-08       -0.02164922699     -9.151096045e-46 
                   1                    2          -2.39329757         0.1662384868        0.01923058447      0.0008180957106      6.310972067e-18       5.00381785e-82     1.341931363e-162         0.0525228303        0.03902055726        0.04971780068       0.003069186617        0.03466916687      1.009558187e-08        0.01673545259      4.592963862e-46 
                   1                    1          15.07931315      -0.007936833498     -0.0009181384525     -3.905888201e-05     -3.013088935e-19     -2.389005693e-83    -6.406871235e-164      -0.002423000588      -0.001851919177      -0.002279567813     -0.0001568540159      -0.001479122208     -7.119946375e-10     -0.0004846531316     -3.074528924e-47 
                   0                   16           -5.7510999         0.4813273688        0.06232390666       0.004253672965      1.507991429e-15      8.976313786e-73      8.48468234e-145         0.2208898797         0.1608149312         0.2078340904        0.01430217282         0.1404603198      1.203721532e-06        0.05924751544      1.045461992e-33 
                   1                    4           1.17765887       0.002339042781      0.0003028672238      2.067101039e-05      7.328185957e-18      4.362100167e-75     4.123188553e-147       0.001052868068     -0.0006388559415      0.0009775402407      8.179403867e-05      0.0001258686207      1.430999817e-08      -0.002145993234     -4.277397082e-34 
                   1                    1          14.97822691      -0.005900969446      -0.000764077617     -5.214911062e-05     -1.848764879e-17     -1.100476657e-74    -1.040203705e-146      -0.001736048433       0.002824786895      -0.001494935318      -0.000263866483     -0.0001874432958     -1.501019041e-08       0.001243533667     -1.281713793e-35 
                   0                    8           -4.2407634         0.9092325462         0.1968793749        0.07160755061      3.252824998e-08      4.514180833e-39      3.503902196e-78          1.592980903          1.293483256           1.33191614         0.2939962367         0.7441894482       0.008053918067         0.2915897296      1.012803288e-06 
                   1                    1           1.20570021                   -0                   -0                   -0                   -0                   -0                   -0      -0.000555767835        0.04122199489     -0.0007469746375      0.0003040424446       -0.01322532989      0.0008218141723       -0.07388135044     -6.674003148e-08 
                   1                    1          14.90748383                   -0                   -0                   -0                   -0                   -0                   -0        0.02586840885       -0.07868774232        0.02829807334      -0.002710328083        0.05011887904     -0.0004677400372         0.1251453023       1.20952998e-08 
                   0                    9          -3.57601358         0.8415111236         0.2170522214         0.1190562672      1.961613548e-06      1.865486288e-30      5.029151709e-61          2.111990781          1.814720207          1.655562415         0.5198732836         0.8173983108        0.04025997386          0.240490438       0.001890972397 
                   1                    2           0.08350243          0.262663741        0.06774925115        0.03716143929      6.122851361e-07      5.822806062e-31      1.569766299e-61         0.6619035795         0.5787881003         0.5209431304         0.1606560738         0.3129875069       0.005566579947        -0.1115531461     -7.223637991e-05 
                   1                    1          15.07931315       -0.04021869657        -0.0103736685      -0.005690106466     -9.375222484e-08      -8.91579741e-32     -2.403603719e-62       -0.08927859855       -0.07926206928       -0.07126663795       -0.02098087153       -0.03795054308      -0.003721554095        0.01852367122     -0.0003604334948 
                   0                   10          -2.14301379         0.4853089058         0.2132204614          0.268764766       0.007283415219      9.757210386e-13      1.259741965e-25          2.917943749          2.923711857          1.727598123          1.424168587         0.2770139289         0.3806786915        -0.2241397477         0.1018549171 
                   1                    3           0.03517271         0.2627204372         0.1154262206         0.1454949538       0.003942853732      5.282034901e-13      6.819573177e-26          1.597753621          1.455000809         0.9363198725         0.7669381393         0.6226206682         0.0769312399         0.4523684157       -0.01741090617 
                   1                    1          15.07324118        -0.0372036056       -0.01634540363       -0.02060340998     -0.0005583439826     -7.479842274e-14     -9.657136444e-27        -0.1595374242        -0.1188836525        -0.1177777109       -0.08599968936        -0.1392193194       -0.08940651824        -0.1800306184        -0.1439010575 
                   0                   11           -1.4910997         0.2436463184         0.1832252691         0.3378039275         0.2840184468      0.0001442298822       3.10097183e-09          2.821693259          3.138283122         0.9739018622          2.247752159         0.0120180087         0.6389564426       -0.06547436992         0.2048027162 
                   1                    4           1.17765887       0.004523607325        0.00340181282       0.006271764461       0.005273167822      2.677813299e-06      5.757353107e-11       -0.02859444173        0.03433744557      -0.007613929611        0.06671021196        -0.1240780003        0.09244990859        -0.2732995948         0.1836873412 
                   1                    1          14.97822691       -0.01141221906      -0.008582140384       -0.01582249404       -0.01330322064      -6.75562439e-06     -1.452472997e-10         0.2042831948         0.2029000804         0.1262261004        -0.1438559196        0.04652991001        -0.2424193511         -0.323484911        -0.4620199066 
                   0                    1           0.68398662       -0.09540006303       -0.08306147317        -0.1618853589        -0.2253558457      -0.001059143267     -3.673811437e-07         -1.308865173         -1.496838606        -0.3444730142          -1.14808353         0.1782587363         -0.355927199         0.1377584746        0.04925968448 
                   1                    2           0.08350243         0.1610496697         0.1402202723         0.2732868591         0.3804345968       0.001787993297      6.201946829e-07          2.214233506          2.519886963         0.6406429762          1.893647914         -0.109145598         0.4895446823        -0.1159474549        0.07797543317 
                   1                    1          15.07931315       -0.02465969522       -0.02147032767       -0.04184529323       -0.05825160166     -0.0002737749779     -9.496332334e-08        -0.1161693998       -0.01544803511        -0.1008707369        -0.2276481906        -0.6926182564        -0.4898973258        -0.8237061636         -0.766542408 
                   0                    2           2.11698641        -0.4655357807        -0.2100746258        -0.2722429231      -0.009467780235      -3.80807886e-12     -1.942425498e-24         -2.919166597         -2.810658443         -1.735317036          -1.40804101        -0.6607678253        -0.2918395207        -0.2196433279       -0.09218890972 
                   1                    3           0.03517271         0.2597652412         0.1172199606         0.1519093731       0.005282945627      2.124877539e-12      1.083857888e-24          1.621849776           1.70239379         0.9528850801         0.8083689821       -0.07329506402         0.3308835286        -0.3899534964         0.0109796233 
                   1                    1          15.07324118       -0.03678512296       -0.01659941354       -0.02151175015     -0.0007481131945     -3.009020035e-13      -1.53484144e-25        -0.1597805448        -0.1268766563        -0.1090192081       -0.09994250299       -0.07120652388       -0.08844258029        -0.2239122532        -0.1571264476 
                   0                    3            2.7689005        -0.6452326709        -0.2490604253        -0.2699278514      -0.001884508812     -6.411132602e-16     -4.728097003e-32         -3.190446556         -3.095278766         -2.102809734         -1.335630437        -0.5177963903        -0.4155699709       -0.04802640348        -0.2393990652 
                   1                    4           1.17765887       0.006580146039       0.002539942636       0.002752750694      1.921840563e-05      6.538135885e-18       4.82175968e-34      -0.003839189526       -0.03026462044       0.008647242137        0.02599379882       -0.07580671969        0.01489677623       -0.01144179725        0.09856155089 
                   1                    1          14.97822691       -0.01660048334      -0.006407802376      -0.006944677485     -4.848445926e-05     -1.649449955e-17     -1.216440194e-33        0.08114211662         0.1821821929        0.03396113818       -0.04950699701        0.05890797527       -0.04156334323       -0.09771505662        -0.2478382844 
                   0                    4             4.279237        -0.9092325462        -0.1968793749       -0.07160755061     -3.252824998e-08     -4.514180833e-39     -3.503902196e-78         -1.588083203         -1.313969324         -1.334455181        -0.2923893739        -0.5968239832       -0.03140678568        -0.2471409467       -0.02902753922 
                   1                    1           1.20570021                   -0                   -0                   -0                   -0                   -0                   -0      -0.001425614105        0.05822829107      -0.001984409722       0.001935357104       -0.01260025441      7.353165432e-05       -0.03805879443       0.001592590336 
                   1                    1          14.90748383                   -0                   -0                   -0                   -0                   -0                   -0        0.02937028104        -0.1216932372        0.02977574125      -0.003883160782        0.03662835316      -0.000163963682        0.07301456337      -0.004017808906 
                   0                    5           4.94398682        -0.7657187459        -0.1263025109       -0.02075877284     -1.055001713e-11     -2.036585136e-55    -1.382168848e-110        -0.7052643622         -0.570025432        -0.6317423311       -0.08095892347        -0.3540517631     -3.716419032e-05       -0.06127004829      -2.69970968e-24 
                   1                    2           0.08350243         0.1744835521        0.02878042474        0.00473028046      2.404021677e-12      4.640745844e-56     3.149534102e-111         0.1603610031         0.1267502835         0.1424182681        0.01974631093        0.07389748773      9.912036613e-06        0.05576235553     -3.599606544e-24 
                   1                    1          15.07931315       -0.02671667209      -0.004406817497     -0.0007242937826     -3.681003628e-13     -7.105843701e-57    -4.822521597e-112       -0.02240865098        -0.0178749602       -0.01974040696      -0.002944902205        -0.0113198326     -1.548135841e-06       -0.00498378991     -9.419549758e-26 
                   0                    6           6.37698661       -0.02470499166      -0.002520098787      -5.95918061e-05     -3.199981929e-21     -1.234126423e-93    -2.915970279e-184      -0.004849396404      -0.003592991419      -0.004629670317     -0.0002401238588      -0.003347959252     -6.874520954e-10      -0.001213770251     -6.117153534e-47 
                   1                    3           0.03517271       0.004548444496      0.0004639762527      1.097146788e-05      5.891497714e-22      2.272154395e-94     5.368602891e-185      0.0008930292944      0.0006620381851      0.0008524261701      4.437225563e-05      0.0006159667945      1.204679858e-10      0.0002372443831     -4.879124664e-48 