ITEM: TIMESTEP
0
ITEM: NUMBER OF ENTRIES
582
ITEM: BOX BOUNDS pp pp pp
0 4.26
0 2.4768
0 30
ITEM: ENTRIES c_2[1] c_2[2] c_2[3] c_2[4] c_2[5] c_2[6] c_2[7] c_2[8] c_2[9] c_2[10] c_2[11] c_2[12] c_2[13] c_2[14] c_2[15] c_2[16] c_2[17] c_2[18] c_2[19] c_2[20] c_2[21] c_2[22] c_2[23] c_2[24] c_2[25] 
                   0                  102           4.99317152       -0.01677175206      -0.001796441903     -0.0003782307268     -5.381178994e-05     -8.398739518e-12     -2.324984556e-20     -2.182909912e-89    -5.099222736e-176      -0.004013079363      -0.002958912033      -0.003986437392      -0.001911862785      -0.003820518417     -0.0002105953629      -0.003212807661     -2.740744222e-07      -0.002747802104     -1.921732019e-10      -0.001730883934      2.435308596e-30      -0.001497662373      5.119327405e-56 
                   1                    2          -5.00565225          0.127329723        0.01363843497       0.002871495684      0.0004085345574      6.376251999e-11      1.765108608e-19      1.657246741e-88     3.871286767e-175        0.03045852387         0.0224088152        0.03025572445        0.01451790849        0.02898856742        0.00160712812        0.02429806689      1.813385922e-06        0.02070348877      2.993988064e-09        0.01240429343      4.394786603e-30       0.009872857045      4.406964545e-56 
                   1                    1          14.95007814     -0.0008560405471     -9.169150029e-05     -1.930512907e-05     -2.746586876e-06     -4.286768338e-13     -1.186686426e-21     -1.114170654e-90    -2.602674666e-177     -0.0001696514602     -0.0001250266599     -0.0001683112858     -8.124103297e-05     -0.0001600183394     -1.054155068e-05     -0.0001307817582     -1.634072608e-08     -0.0001106238061     -4.127929947e-11     -8.066668954e-05     -2.531300168e-31     -7.472290054e-05     -4.392819608e-57 
                   0                   68           4.16707431                   -0                   -0                   -0                   -0                   -0                   -0                   -0                   -0      -0.001845305863      -0.005195052439      -0.001837598994      -0.006385373915       -0.00106722901      -0.000759080111       0.003239207936       0.000593661564       0.004010858201      7.959104778e-05        0.01922864845     -1.448741637e-05        0.02989857515     -2.568143808e-07 
                   1                    1          -3.68759211         0.8137120297         0.1388539779        0.06751915073        0.02547174737      3.870552671e-06      3.272168883e-11      3.518983774e-53     3.615938187e-106         0.8134137389         0.5585558402         0.7994397559         0.4251637208         0.7236100855        0.09965245159          0.526221613       0.005512883692         0.4158833063       0.002276961024         0.2135742458       4.46077852e-05          0.177461485      3.377284008e-07 
                   1                    1          14.90791363                   -0                   -0                   -0                   -0                   -0                   -0                   -0                   -0       0.008144941953       0.005375433624       0.008179437125       0.002804710798       0.008335505055     -0.0002158121943       0.008544052755     -3.048526901e-05       0.008531465751     -8.442165475e-07        0.00497637574     -7.394466474e-07        0.00323444827     -1.310796405e-08 
                   0                   69           0.73317132         0.5139697313        0.08295958291        0.03706173988        0.01269041892      9.626739525e-07      3.526348443e-12      4.990658946e-57     1.296914675e-113         0.4470283916          0.360259651         0.4404026583         0.2617242785          0.401657733        0.04992346882         0.2888802584      0.0005789473208         0.2232084902      1.968197564e-05         0.0926809496      1.458287651e-14        0.05094302868     -9.066800771e-25 
                   1                    2          -2.52885225         0.5679960244        0.09167993835        0.04095751098        0.01402438131      1.063866108e-06      3.897023063e-12      5.515255603e-57     1.433240781e-113         0.4931059526         0.4000458105         0.4858459967         0.2919255277         0.4434540975        0.05464161504         0.3210852281      0.0006040189729         0.2498445954      1.655560027e-05        0.08192282861      8.050669845e-14        0.01865768294      3.205783487e-24 
                   1                    1          14.95007814      -0.006310976734      -0.001018651422     -0.0004550769508     -0.0001558242318     -1.182056558e-08     -4.329963736e-14     -6.127974192e-59    -1.592466995e-115     -0.0003151534518      -0.002951868633     -0.0001518116942      -0.004375474439       0.000842208647      -0.001268603056       0.004341672975     -8.775640233e-06       0.007217446478     -1.231777897e-07        0.01507749402     -3.675597634e-15        0.01185835855     -2.173559457e-25 
                   0                   71            2.8915458         0.1937595873        0.03153388798        0.01426944329       0.004958254911      4.177362192e-07      1.735831537e-12      6.673915563e-57     6.040218427e-113         0.1719332167         0.1393359343         0.1693640742         0.1012493777         0.1547371639        0.01897936228         0.1144916889      0.0004235554119        0.09181276763      0.0001627725296        0.02939123291      3.430035921e-05        0.00106573159      4.974470184e-06 
                   1                    4          -3.66276711         0.7487072238         0.1218502272        0.05513861494        0.01915921334      1.614176255e-06      6.707433835e-12      2.578870478e-56     2.334003305e-112         0.6650657707          0.534771477         0.6550102405         0.3872653572         0.5971266556        0.07489700095          0.432515111       0.001482565705         0.3397406272      0.0005142903512         0.1499185981      0.0001201747358        0.07292270334      2.156166148e-05 
                   1                    1          15.06637231       -0.02407071907      -0.003917449297      -0.001772690403     -0.0006159631259     -5.189529623e-08     -2.156420432e-13     -8.290993437e-58    -7.503752612e-114       -0.01986886916       -0.01585014965       -0.01957288686       -0.01132032577       -0.01790887748      -0.002165779926       -0.01357154207     -5.197685668e-05       -0.01125805596     -1.126554281e-05      -0.005042713919     -3.380628235e-06      -0.001510633467     -7.845860023e-07 
                   0                   73           4.99317152        -0.1903370251       -0.04710516057       -0.03661823674       -0.02360549694     -0.0001788638232     -1.758371313e-07     -5.132762153e-33     -1.781110112e-65        -0.4428016282        -0.3653041044        -0.4266238042        -0.2809557911        -0.3532998881        -0.1016639754          -0.20297321       -0.01894315632         -0.139980043       -0.01248253366        -0.1429130446     -0.0008094752521        -0.2565397439     -0.0006310102159 
                   1                    2          -2.52885225         0.8743551982         0.2163879675         0.1682139648         0.1084370681      0.0008216505092      8.077467307e-07      2.357847753e-32      8.181923009e-65          2.024016456          1.747919072           1.94712401          1.374853628          1.603350796         0.4777433758          1.039878425        0.08482945344         0.7886394521        0.02875356321         0.2714155467        0.00307569176         0.0783365676       0.001677413429 
                   1                    1          14.95007814        -0.0097149189      -0.002404276385      -0.001869017339      -0.001204839091     -9.129319615e-06     -8.974835395e-09     -2.619793391e-34     -9.090895628e-67       0.005972613003       0.003323836284       0.006933401503      0.0005416840554        0.01014069448      -0.004933842193        0.01228121459      -0.002169194456        0.01112947546     -0.0009588467691      -0.003368205689     -4.257800792e-05       -0.01157152687     -3.220775012e-05 
                   0                   75             7.151546        -0.2511458459        -0.0325933794        -0.0100476841      -0.002244872266     -8.353926529e-09     -8.569765979e-16     -6.965358274e-73     -9.70525234e-145        -0.1148488699       -0.08665102755        -0.1138492511       -0.05775138941        -0.1077552195       -0.00777393819       -0.08682853505      -4.32469014e-05        -0.0716388619     -1.979887783e-06       -0.03691878858     -8.274994332e-13       -0.03037498162     -1.491997469e-20 
                   1                    4          -3.66276711         0.4147606328        0.05382709244        0.01659348097       0.003707346376      1.379628574e-08      1.415273881e-15      1.150310249e-72      1.60279641e-144         0.1896552414         0.1339920685         0.1880045813        0.08805654438         0.1779649993        0.01281425814         0.1437560954      7.824050932e-05         0.1191395512      4.356084858e-06        0.06216319037      1.671823102e-12        0.05155187555      2.328823714e-20 
                   1                    1          15.06637231       -0.01333443348      -0.001730525337      -0.000533475578     -0.0001191901057     -4.435465664e-10     -4.550064286e-17      -3.69821393e-74    -5.152943752e-146      -0.005834443115       -0.01119810114      -0.005784765147      -0.008001934843      -0.005480556909     -0.0003876578166      -0.004417444592     -1.778425053e-06      -0.003616586818     -9.306180595e-08      -0.001499003692     -4.414087559e-14      -0.000748812756       -7.9125788e-22 
                   0                   80           9.25317172       -0.09142768034      -0.009725509833      -0.002017617884     -0.0002819369832     -3.861129972e-11     -9.231734385e-20     -3.027336268e-89    -1.976610663e-176       -0.02131146787        -0.0154799604       -0.02117528979      -0.009908877823       -0.02032401377      -0.001079552616       -0.01717119858     -1.139011322e-06       -0.01476198308     -1.843324114e-09      -0.009061120924     -2.394555538e-30       -0.00714389098     -1.861549699e-56 
                   1                    2          -2.52885225        0.06821640087       0.007256437821       0.001505393442      0.0002103599938      2.880882344e-11      6.888020031e-20       2.25876872e-89     1.474796964e-176         0.0159090783        0.01158448366        0.01580719069       0.007417359589        0.01517068778      0.0008073087696        0.01281805909      8.827365053e-07        0.01102086649      1.219292891e-09       0.006859501607      1.246021535e-31       0.005571448177     -5.370565563e-57 
                   1                    1          14.95007814     -0.0007579491762      -8.06259345e-05     -1.672635472e-05     -2.337299857e-06      -3.20093463e-13       -7.6532462e-22      -2.50970715e-91    -1.638639872e-178     -0.0001447943759      -0.000175422112     -0.0001433191651     -0.0001479804487     -0.0001339773484     -1.181191172e-05     -9.702386715e-05     -9.852650896e-09     -6.483189207e-05     -2.554935974e-11      5.567158368e-05     -1.060375333e-31      0.0001364735621     -1.099469562e-57 
                   0                   42          -0.09292589         0.7091767466         0.1220831632        0.06014235769        0.02302895094      3.894688774e-06       3.74652031e-11      1.123147344e-52     4.151769392e-105         0.7254259499         0.5754768778         0.7130763528         0.4148661952         0.6455716069        0.08857609837         0.4644060245       0.004405846053         0.3624282322       0.002351345036         0.1811012463      0.0004119886994         0.1394842197      4.719346463e-05 
                   1                    1          -1.21079211         0.4123213341        0.07098017947        0.03496727337        0.01338922606       2.26440486e-06      2.178258467e-11      6.530073264e-53     2.413873696e-105         0.4189775172          0.326994019         0.4119865157         0.2310197546          0.374470358        0.04946875327         0.2756963381       0.003114040925         0.2196761507       0.001504932067         0.1392222177       0.000163349552         0.1317381622      7.711735742e-06 
                   1                    1          14.90791363                   -0                   -0                   -0                   -0                   -0                   -0                   -0                   -0       0.009200744547       -0.01768038595        0.00937172258       -0.02400785599        0.01046032158      -0.001374773454        0.01475955433      6.320350348e-06        0.01843869542      6.005165999e-06        0.03765010607     -4.734784734e-06        0.06397936302     -1.226013897e-06 
                   0                   45           -1.3684544          0.284649232         0.0334473266       0.008522360008       0.001523504917      1.196984794e-09      2.043289727e-17      1.530443618e-80     6.642867461e-160         0.0940437047        0.06928052721        0.09330491742        0.04528745698        0.08874203971         0.0058027109        0.07266069177      1.155269049e-05        0.06122953673      1.613980033e-07        0.03840247302      2.574746221e-17        0.03261033793        1.6251794e-29 
                   1                    4          -1.18596711         0.1260860231         0.0148155692       0.003774998699      0.0006748399591      5.302071301e-10        9.0507982e-18      6.779134725e-81     2.942473212e-160        0.04161464875        0.03019380006        0.04129299891         0.0196648619        0.03930113416       0.002531520176        0.03221444017      4.424229619e-06        0.02713493708      4.227797495e-08        0.01600164078      8.446710542e-18        0.01230009413      7.688990282e-30 
                   1                    1          15.06637231       -0.00814829873     -0.0009574549244     -0.0002439589763     -4.361147611e-05     -3.426459159e-11     -5.849070793e-19     -4.381010166e-82    -1.901570861e-161      -0.002579373811      -0.001724711389      -0.002556753954      -0.001097097442      -0.002417121363     -0.0001775947433      -0.001926402978     -3.369410418e-07      -0.001578636996     -3.377553015e-09     -0.0008539429651     -6.214307963e-19     -0.0006673620011     -4.843783229e-31 
                   0                   34           4.16707431                   -0                   -0                   -0                   -0                   -0                   -0                   -0                   -0      -0.001114588684       -0.07500698922       0.004626687828        -0.1045879784       -0.02597681245        0.01424903921         0.1638632356       -0.06543609013         0.2397824046         -0.131461136         0.2540653716      -0.004405439764         0.3770806703     -0.0004629520851 
                   1                    1          -1.21079211         0.5572350607         0.2433932895         0.2899488464         0.3048959963        0.08916197783       0.007813167168      8.180428237e-13      7.761829956e-26          3.230650932          3.269416801          2.963944591           2.88053137          1.968369752          1.618041853         0.8521562018         0.6202908521         0.5083582066         0.3945489476        0.05959182526          0.162685326        0.02037890205         0.1508834269 
                   1                    1          14.90791363                   -0                   -0                   -0                   -0                   -0                   -0                   -0                   -0         0.1152282637        0.06875969786         0.1208603709        0.02886303784         0.1327404595       -0.02263242672         0.1329560378       -0.01676627143         0.1311088995       -0.01413016011        0.06366559816       -0.00283774704        0.03440005471     -0.0003409469678 
                   0                   35           0.73317132         0.8121140307         0.2166651701         0.1815785735         0.1275608641       0.001827237161      3.920151502e-06      5.756086673e-29      4.742791625e-58          2.183324782           1.88723246          2.089922632          1.492565069          1.700712098          0.554447834          1.053478346         0.1284218693         0.7716874289        0.07226483238         0.3667666012        0.01013731085         0.3218006944       0.005566709134 
                   1                    2          -0.05205225         0.3117196776        0.08316417942        0.06969663403        0.04896262092      0.0007013618252      1.504700468e-06      2.209400915e-29      1.820460453e-58         0.8383622108         0.7633024761         0.8035795577         0.6171793932         0.6548767632         0.2093070662         0.4545604555        0.04596475121         0.3623693694        0.01158398929       -0.05172656246     -0.0001882346325        -0.3433232117      0.0008377035776 
                   1                    1          14.95007814      -0.009971857175      -0.002660407343      -0.002229582955      -0.001566305555     -2.243644034e-05     -4.813510099e-08     -7.067834322e-31     -5.823620687e-60        0.01054573528       -0.02559521552        0.01279628124       -0.04482917059        0.02360788076       -0.01482106808        0.05831844937      -0.002139627392        0.08505165637      -0.001962134813         0.1484921426     -0.0006526984218         0.1506977959     -0.0006770476339 
                   0                   36           2.12581792         0.4388868872        0.09600760192        0.06504985878        0.03583989194      8.540237353e-05      2.040954503e-08      7.616755834e-39      2.034566741e-77         0.7873403636         0.5428284296         0.7639235221         0.3992973959         0.6568748689         0.1481615595         0.4167288084        0.02274802208         0.3059459584        0.01804990125          0.171413764        0.01003901863         0.1761893348       0.003348452621 
                   1                    3          -2.43588173         0.7959366692         0.1741131328         0.1179701865        0.06499689339      0.0001548801815      3.701342138e-08      1.381325222e-38      3.689757707e-77          1.424386315          1.235836191          1.381391247         0.9523423328          1.192791631         0.2668470753         0.7524999701        0.04096262091         0.5407097599        0.03433018679         0.2278701359        0.03041159143         0.1887398764        0.02660789218 
                   1                    1          15.08034036       -0.03707316297      -0.008109846924       -0.00549481902      -0.003027427324     -7.214013915e-06     -1.724012294e-09     -6.433940921e-40     -1.718616494e-78       -0.06080941814         -0.132541566       -0.05867616603        -0.1120401686       -0.05187590549        -0.0114663749       -0.03388080751      -0.001942821814       -0.02459829853      -0.002044362656       0.006187446039      -0.004873600268        0.02967948587      -0.007055782421 
                   0                   37            2.8915458         0.2999339888         0.1148863264         0.1273539244         0.1232834694        0.01934987817      0.0007875233266       1.81139295e-16      8.191041708e-33          1.509259645          1.576294173           1.39721958          1.364146354         0.9498676029         0.6298091053         0.4302851403         0.2325681327         0.2679181912         0.1530402201         0.0825913311       -0.07344319063       -0.03326163558        -0.1963271529 
                   1                    4          -1.18596711         0.5765693486         0.2208483762         0.2448150993         0.2369903788        0.03719667351        0.00151387248      3.482078365e-16      1.574580994e-32          2.816930633          2.655382337          2.576775639           2.29214035          1.861196932          1.179021658         0.8319762465         0.4750206915         0.4601795314         0.3817230162        0.04630011082         0.2823733482        0.07271915341         0.2643459633 
                   1                    1          15.06637231       -0.03726074609        -0.0142723079       -0.01582115539       -0.01531548348      -0.002403831925     -9.783388284e-05     -2.250290241e-17     -1.017571655e-33        -0.1303155047        -0.0164435232        -0.1065668161      0.0002469310603        -0.1074853789       -0.06350857416       -0.08537939331       -0.04714560117       -0.08773014286       -0.05948070479       -0.07619560057        -0.1420850169       -0.08976518482         -0.193106648 
                   0                   38           8.42707451        -0.7091767466        -0.1220831632       -0.06014235769       -0.02302895094     -3.894688774e-06      -3.74652031e-11     -1.123147344e-52    -4.151769392e-105        -0.7207444473        -0.5703908811        -0.7077822459        -0.4088003594        -0.6396703899       -0.09033608623        -0.4676215666      -0.006923593237        -0.3736218556      -0.003750752357        -0.2025014335     -0.0001896494726        -0.1672869652     -4.229509041e-06 
                   1                    1          -1.21079211         0.4123213341        0.07098017947        0.03496727337        0.01338922606       2.26440486e-06      2.178258467e-11      6.530073264e-53     2.413873696e-105         0.4207700854         0.3334930631         0.4132598009         0.2417348589         0.3728951528        0.05322101043         0.2654115099       0.003392778078         0.2059698078        0.00218174432        0.08912204518      0.0002209685497         0.0654912307      1.047153513e-05 
                   1                    1          14.90791363                   -0                   -0                   -0                   -0                   -0                   -0                   -0                   -0       0.008961028275       -0.01857819823       0.009058904428       -0.02480398828       0.009752084914     -0.0008567627506        0.01334078612      5.208322717e-05        0.01736697215     -5.218947832e-06        0.04224156509     -2.447359033e-05        0.06945764325     -1.771321477e-06 
                   0                   39           4.99317152        -0.1363864439       -0.09950018687        -0.1409691968        -0.1809920131        -0.2390717527        -0.1346924973     -3.991998476e-05     -4.378927294e-10         -1.505693453         -1.375569041         -1.266323155         -1.340714831        -0.5885789431         -1.162794039        -0.1220635451        -0.4408234238       -0.00536248415        -0.2346848842         0.1585007139        -0.2223210648      -0.008528489841        -0.3927260635 
                   1                    2          -0.05205225         0.2176082102          0.158755203         0.2249201148          0.288777586         0.3814453602         0.2149054732       6.36934008e-05      6.986695333e-10           2.46286367          2.881356482          2.067355171           2.71746561         0.8522797372          1.923031885        0.09146803862         0.9435686533        0.02742810629         0.6188276474        0.03180667472         0.1240399678       -0.06410134091       -0.05353303118 
                   1                    1          14.95007814      -0.006961248033      -0.005078550773      -0.007195154563      -0.009237943735       -0.01220236939      -0.006874787955      -2.03754059e-06      -2.23503144e-11         0.1556856862        -0.2157040413         0.2098658977        -0.2147280561         0.1501254162        -0.1027579279        0.07182305336        -0.1708296474        0.06298602576        -0.1698358066        0.06866524116        -0.2528256873        0.09175665107        -0.3682282429 
                   0                   40           6.38581812        -0.4661536456       -0.09886866726       -0.06454119313       -0.03408024198     -5.946924336e-05     -9.718278118e-09     -1.758846667e-40     -1.071459132e-80        -0.7823568169        -0.7447763912        -0.7602157466        -0.5682771278        -0.6536799272         -0.144680624         -0.454856447       -0.01785042577        -0.3536593034      -0.002825845119        -0.1565956412      1.406763982e-07        -0.1120687304      3.929734675e-13 
                   1                    3          -2.43588173         0.7777596198         0.1649586092         0.1076845248        0.05686158693      9.922216964e-05      1.621457724e-08      2.934568738e-40       1.78768879e-80          1.302519871         0.9784546835          1.265439972         0.7211704388          1.088018452         0.2413728072         0.7611929032        0.03083022067         0.6039099939       0.006511790825         0.3077599482      1.832451233e-07         0.2687829431      3.451200803e-13 
                   1                    1          15.08034036       -0.03622651179      -0.007683447237      -0.005015733152      -0.002648500767     -4.621573307e-06     -7.552430838e-10      -1.36686434e-41     -8.326702414e-82       -0.05692551852        0.05025254228       -0.05549132822        0.04916357053       -0.04943599448      -0.008565535707       -0.04043544805      -0.002038000946       -0.03658520237     -0.0006762449792       -0.03476589285     -4.114241186e-08        -0.0453456393     -9.205144245e-14 
                   0                   41             7.151546        -0.6895215618        -0.1717702028        -0.1344444735       -0.08734736191     -0.0007011903679     -7.398312669e-07     -3.794165135e-32     -2.662259169e-64         -1.612675805         -1.402708948          -1.54902001         -1.106017921         -1.272008602        -0.3884445279        -0.8359230273       -0.07682542381        -0.6528743161       -0.03058900099        -0.2257496601      -0.004298637198        0.03560575523      -0.002722872888 
                   1                    4          -1.18596711         0.5664954495         0.1411225459         0.1104565639        0.07176263338      0.0005760822789      6.078287748e-07      3.117200974e-32      2.187252419e-64          1.322107848          1.121689072          1.269429191         0.8753223689           1.04431836         0.3180352058         0.6467101395        0.06932440673         0.4793724409         0.0402104199         0.2664763244       0.004752685205         0.3254132362        0.00308143129 
                   1                    1          15.06637231        -0.0366097212      -0.009120032767      -0.007138246232        -0.0046376542     -3.722926926e-05     -3.928088391e-08     -2.014488531e-33     -1.413510053e-65       -0.07610685995       -0.06846168298       -0.07297469127       -0.05466750857       -0.06204851604        -0.0166593119       -0.04302360085       -0.00617920075       -0.03135210186      -0.004959405191       0.006747803591     -0.0006897080854        0.02411580162     -0.0007002956958 
                   0                   46           9.25317172        -0.6961213078        -0.1073109993       -0.04456420524       -0.01403538288     -5.865369476e-07     -1.051335774e-12     -5.180241502e-60    -1.148884241e-119        -0.5315404258        -0.4262702842        -0.5244555414        -0.3069338549        -0.4824694471        -0.0539230527        -0.3554359585     -0.0004175877858        -0.2790611104     -1.212976592e-05        -0.1085570963     -7.579324875e-14       -0.04355823989     -5.289964036e-24 
                   1                    2          -0.05205225         0.1803995627        0.02780960318        0.01154879623       0.003637263942      1.520008189e-07      2.724532516e-13      1.342457544e-60     2.977328985e-120         0.1380614696         0.1109342915         0.1362164144        0.08024970852         0.1251543221        0.01416763227        0.08995663062      0.0001132098791        0.06821145574      5.339860114e-06        0.03022573063       5.59219837e-15        0.01604483934     -1.964685319e-24 
                   1                    1          14.95007814      -0.005770949999     -0.0008896242713     -0.0003694439422     -0.0001163554281     -4.862479225e-09     -8.715731175e-15     -4.294497864e-62    -9.524422591e-122     -0.0003716277313      -0.002064701871     -0.0002542351549      -0.002967097098      0.0004579335344      -0.000909535042       0.002868243335     -4.639721324e-06       0.004672100953     -7.178287724e-08       0.009461739043     -5.483505456e-16       0.007798883833     -4.301631479e-26 
                   0                    8          -0.09292589         0.9092325462         0.1968793749         0.1317844345        0.07160755061      0.0001541166679      3.252824998e-08      4.514180833e-39      3.503902196e-78          1.598713204          1.322843559          1.553646141         0.9964109779          1.340482331         0.2910484487         0.9382852452        0.04169672183         0.7349341826        0.01082245601         0.3132296445      6.129001373e-07         0.2140733257      4.104704625e-12 
                   1                    1           1.26600789                   -0                   -0                   -0                   -0                   -0                   -0                   -0                   -0      0.0002695281827      -0.009324728284      0.0003390144743       -0.01158975894      0.0003448036513     -0.0001536171474       0.002057180335     -0.0004987161454       0.005214176637     -0.0006804940392        0.03811962144     -9.526247949e-07        0.05119493082     -1.806472637e-11 