ITEM: TIMESTEP
0
ITEM: NUMBER OF ATOMS
4
ITEM: BOX BOUNDS pp pp pp
0.0000000000000000e+00 4.2600002000000003e+00
0.0000000000000000e+00 2.4767999999999999e+00
0.0000000000000000e+00 3.0000000000000000e+01
ITEM: ATOMS id type c_1[1] c_1[2] c_1[3] c_1[4] c_1[5] c_1[6] c_1[7] c_1[8] c_1[9] c_1[10] c_1[11] c_1[12] c_1[13] c_1[14] 
1 1          13.96736804          12.60849614          6.089464837          0.308597693      6.289890232e-05      2.351529883e-09          48.62437095          43.28360974          36.36494563          14.42342982           15.5642486          2.418287451          3.296317644         0.7807626999 
2 1          13.95049286          12.59028639          6.130569901          0.411995447      0.0003493584625      9.603665794e-08          48.57527103           43.4502765          35.97062988          14.83571293          15.00198244          2.664011185          3.030721702         0.7905563793 
3 1          13.94822376          12.58816186          6.135148448         0.4233455911      0.0003732201809      9.897583475e-08          48.57644511          43.48192474          35.92733605          14.88245075          14.96906403          2.662330187          3.037311945          0.771906362 
4 1          13.95718568          12.59793557          6.088866539         0.3205781866      8.676062053e-05      5.290706685e-09          48.62523009          43.23208978          36.29487198          14.44462981           15.5299429           2.36597511          3.315783987         0.6580386233 
