ITEM: TIMESTEP
0
ITEM: NUMBER OF ATOMS
4
ITEM: BOX BOUNDS pp pp pp
0.0000000000000000e+00 4.2600002000000003e+00
0.0000000000000000e+00 2.4767999999999999e+00
0.0000000000000000e+00 3.0000000000000000e+01
ITEM: ATOMS id type c_1[1] c_1[2] c_1[3] c_1[4] c_1[5] c_1[6] c_1[7] c_1[8] c_1[9] c_1[10] c_1[11] c_1[12] c_1[13] c_1[14] c_1[15] c_1[16] c_1[17] c_1[18] c_1[19] c_1[20] 
1 1          13.95936708          12.60010415          6.082471741          1.123445314         0.5095263561         0.3235790328      0.0001784680633      3.171129746e-08          49.34810103          45.82386361          41.41229915          23.23080561          21.62511655          4.073564942          15.39459638          2.426859312           5.01909432         0.8177782124           3.08084993          0.572493909 
2 1          13.96196759          12.60227384          6.109614659          1.187128475         0.5587371713         0.3622239014      0.0002114979639      3.342226195e-08          49.33846068          45.87549367          41.27936305           23.4587367           21.4028646          4.249419718           15.1633619          2.595126623          4.872482716         0.9928955815          3.013798315         0.8135338669 
3 1          13.95302366          12.59332631          6.130741315          1.258822222         0.6172855405         0.4090027563      0.0002493564975      3.743343344e-08          49.33096992          45.89740349          41.13838976          23.58844058          21.31314652          4.374180473          15.18386645          2.658915514           5.09496262         0.9932996173          3.251571243         0.8177820827 
4 1          13.95417128          12.59463518          6.112846137          1.206357792         0.5723807265          0.372326045      0.0002163266009      3.572246895e-08          49.35971945           45.8569928          41.25893538          23.41308289          21.50140735          4.238870879          15.37429141          2.521579916          5.239923072         0.8446396266          3.362094501         0.6119272341 
