ITEM: TIMESTEP
0
ITEM: NUMBER OF ENTRIES
582
ITEM: BOX BOUNDS pp pp pp
0 4.26
0 2.4768
0 30
ITEM: ENTRIES c_2[1] c_2[2] c_2[3] c_2[4] c_2[5] c_2[6] c_2[7] c_2[8] c_2[9] c_2[10] c_2[11] c_2[12] c_2[13] c_2[14] c_2[15] c_2[16] c_2[17] 
                   0                   78          -2.10550829         0.4606325217        0.09806897372        0.03414135669      1.060911363e-08      2.795898661e-40      2.723683285e-80         0.7780650613         0.6782773256         0.6598268384         0.1367813217         0.3038394679        0.01680944155         0.1178603847        0.01782039705 
                   1                    3          -2.51266364         0.7822234354         0.1665358956        0.05797716848      1.801587365e-08      4.747857246e-40      4.625224656e-80          1.319062202          1.054543773          1.110678667          0.237583316         0.4938730267        0.02744091734         0.2011864218         0.0140694467 
                   1                    1          14.95006065        0.01430870138       0.003046332148         0.0010605384      3.295525862e-10      8.684944536e-42      8.460620764e-82        0.02384885147        -0.2825949299        0.02125992506       0.003507985897        0.01401045549      0.0006864744757        0.03021685037       0.002965526625 
                   0                   79          -1.37069673         0.2141897805        0.03431017064       0.005116246932      1.147650731e-12      6.435231909e-58     5.264073798e-115         0.1830920331          0.147660469         0.1662807405         0.0185112944         0.1022707741      3.977071483e-06      -0.003958778444      3.062489197e-24 
                   1                    4          -3.73205384         0.7278871084         0.1165972104        0.01738668473      3.900093507e-12      2.186902819e-57     1.788904889e-114         0.6205985197         0.4999392206         0.5596777076        0.06702025157         0.3166526207       2.30553854e-05        0.05440758141      9.016586444e-25 
                   1                    1          15.00269145       0.002254156109      0.0003610838976      5.384392874e-05      1.207799878e-14       6.77250674e-60     5.539967445e-117      0.0005148515554      0.0006353192831      0.0002835781095      0.0002550324833     -0.0003747514647      1.922008914e-08     -0.0007790203449       8.14544278e-26 
                   0                   68           0.08045256                   -0                   -0                   -0                   -0                   -0                   -0      -0.001183077459       -0.01058945746      0.0004783046166      -0.001750470234        0.01119175335      0.0001142747838        0.05293860069     -1.645046752e-05 
                   1                    1          -3.75417271         0.8137120297         0.1388539779        0.02547174737      3.272168883e-11      3.518983774e-53     3.615938187e-106          0.816282617         0.5530414936         0.7318796942        0.09365120521         0.4388366389       0.002344612192         0.2037817388      5.401463613e-05 
                   1                    1           15.0179635                   -0                   -0                   -0                   -0                   -0                   -0      -0.002589176412      -0.001171985483      -0.002749558207      0.0001757269204       -0.00345191167       -5.5242412e-06      -0.003753074636      1.028856253e-06 
                   0                   69            0.6430401       -0.02305696691      -0.002626170195     -0.0001042976838     -4.605690962e-19     -3.864161939e-84    -6.428371135e-166      -0.006928455131      -0.005043634074      -0.006569167668     -0.0003935001181      -0.004722404065     -1.768623715e-08      -0.003431804915     -3.110424821e-32 
                   1                    2          -4.92208194         0.2508826195        0.02857533085       0.001134862024      5.011447593e-18      4.204590627e-83     6.994704013e-165        0.07529078342        0.05438465915        0.07150254103       0.004145003308        0.05137568011      7.428492429e-08        0.02848099034      4.875781121e-31 
                   1                    1          14.98277777       0.001442044401      0.0001642477105      6.523056202e-06      2.880522356e-20      2.416750265e-85     4.020475304e-167       0.000401140077      0.0002904562595      0.0003799790373      2.316257036e-05      0.0002705594077      3.464563314e-10      0.0002142690382      2.948189365e-33 
                   0                   70           2.15449191        -0.4434934791       -0.09627526255       -0.03524500237     -1.694027297e-08     -3.009855127e-39     -3.181106953e-78        -0.7865106218        -0.5831940671         -0.662149236        -0.1404403279        -0.3874277725      -0.006315287077        -0.2500693638       -1.0171444e-10 
                   1                    3          -2.51266364         0.7937593475         0.1723123184        0.06308108553      3.031949883e-08      5.387002864e-39      5.693507343e-78          1.402741452          1.175157461          1.175800071         0.2560973056         0.6516118305       0.009906325684         0.1780891405     -3.047628425e-11 
                   1                    1          14.95006065        0.01451972027       0.003151996471       0.001153901014      5.546147495e-10      9.854091786e-41      1.041476037e-79        0.02569132744        0.02288729226        0.02223237816       0.003937999209        0.01295820526      0.0003312893792       -0.01769052276      4.877723644e-12 
                   0                   71           2.88930347         -0.263445448       -0.03523237276      -0.002731847482     -2.738410635e-15     -1.311880654e-70    -2.939425864e-140        -0.1330544253       -0.09295997209        -0.1247664995      -0.009086132072       -0.08327155444      -1.17065169e-06       -0.03604336891     -1.238296425e-32 
                   1                    4          -3.73205384         0.4625294461        0.06185724589       0.004796286717        4.8078096e-15      2.303260265e-70      5.16073072e-140         0.2332092153         0.1769099217         0.2184728551        0.01615463033         0.1443420166        2.0953753e-06        0.05223758314      2.540255286e-33 
                   1                    1          15.00269145       0.001432383627      0.0001915625199      1.485337338e-05      1.488905801e-17      7.132848124e-73     1.598200125e-142      0.0003238788228       0.008821504583      0.0002388802828      9.268992095e-05     -0.0003570444639     -1.277747943e-09      -0.003185343628      3.938545832e-34 
                   0                   50          -5.63069693         0.1886247272        0.02098179329      0.0007489529772       1.38522495e-18      3.652554947e-85     8.490213405e-169        0.05147885188        0.03792128042        0.04887428722       0.002849470945        0.03471497383      8.693930825e-08        0.01719485747      2.227952486e-33 
                   1                    4          -1.25525384        0.08107186817        0.00901808159       0.000321903803      5.953767364e-19      1.569886714e-85     3.649136951e-169        0.02214515454        0.01635470176        0.02104295987       0.001205469751        0.01497962596      2.891915711e-08       0.006896544864      2.238730992e-33 
                   1                    1          15.00269145      0.0005043969293      5.610691803e-05      2.002757472e-06       3.70419733e-21      9.767210939e-88      2.27034792e-171      0.0001008886696      0.0001316510889      9.136518263e-05      1.040508808e-05      3.075503025e-05      5.148038047e-13     -0.0002114990849      3.930168644e-35 
                   0                   42          -4.17954764         0.7091767466         0.1220831632        0.02302895094       3.74652031e-11      1.123147344e-52     4.151769392e-105         0.7236310437         0.5786027908         0.6409708951        0.09165411692         0.3564600184       0.002149296379         0.1306479613      2.819005157e-07 
                   1                    1          -1.27737271         0.4123213341        0.07098017947        0.01338922606      2.178258467e-11      6.530073264e-53     2.413873696e-105         0.4190650381         0.3051153766         0.3725995346        0.05166549568         0.2207865701       0.001295817693         0.1257230632     -5.489638559e-08 
                   1                    1           15.0179635                   -0                   -0                   -0                   -0                   -0                   -0      -0.002848195922        0.04394328019      -0.003116847432      0.0002927334556      -0.005527573123     -1.243047899e-06       -0.02685746313      7.841215798e-09 
                   0                   43           -3.6169601         0.5280180516        0.08312780803        0.01168899794      1.603377866e-12      1.074079617e-58     6.191512685e-117         0.4279747844         0.3451954575         0.3854832813        0.04670836874          0.213308221      1.775841343e-05        0.03988621924     -1.833623737e-24 
                   1                    2          -2.44528194         0.5204916095        0.08194289279        0.01152238136      1.580523097e-12      1.058769538e-58     6.103258009e-117         0.4209937678         0.3394230313         0.3796337287        0.04548268797         0.2159943631       1.28217901e-05        0.03070657412      1.604382825e-23 
                   1                    1          14.98277777       0.005024784169      0.0007910701016      0.0001112361436      1.525824296e-14      1.022127603e-60     5.892036233e-119       0.003245213537       0.003007190366       0.002803539395      0.0004851425994      0.0006521280738         7.438348e-08      -0.001676763787      4.595633345e-25 
                   0                   44          -2.10550829         0.4949904833         0.2127110247         0.2618085382       0.005726363299      2.983357436e-13      1.183280808e-26          2.883291604          2.871913082          1.755624061          1.372270016         0.2850889424         0.3845206744        -0.1778391304         0.1408793778 
                   1                    3          -0.03586364         0.2797201306         0.1202034335         0.1479485384       0.003235979567      1.685901365e-13      6.686743956e-27           1.65710792          1.554716209         0.9736719931         0.7841957309         0.5639846716        0.07076874013         0.3586594016        0.03377236821 
                   1                    1          14.95006065        0.01537596821       0.006607476436       0.008132600316      0.0001778789351      9.267250712e-15      3.675644019e-28        0.03998783738       -0.01717690874        0.06512964511        0.03084747905        0.07357714268        0.02999856209        0.09349270664        0.09094525883 
                   0                   45          -1.37069673         0.3442043675         0.1272180479         0.1301960129      0.0005439933458      1.929153643e-17      8.433534813e-35          1.559705534          1.461613249          1.088599205         0.6304687991         0.3295092602         0.2317696724        0.03954809653         0.3513359146 
                   1                    4          -1.25525384         0.5822364188         0.2151947726         0.2202321279      0.0009201880261      3.263245951e-17      1.426568507e-34           2.73276222          2.633927583          1.802367708          1.098483118         0.4319705956         0.3245454366        0.03853392328       0.005114608957 
                   1                    1          15.00269145       0.003622443498       0.001338856313       0.001370196734      5.725044028e-06      2.030261883e-19      8.875542043e-37       -0.01786927605         0.4562184696       -0.01204087939       0.008484067272       -0.01897127997        0.01244061095        -0.0375148203        0.07169998114 
                   0                   34           0.08045256                   -0                   -0                   -0                   -0                   -0                   -0        0.02392003915        -0.1711269239       0.007949452951       -0.01303813075         0.4172197459        -0.1521983882         0.7066515273       -0.04489926714 
                   1                    1          -1.27737271         0.5572350607         0.2433932895         0.3048959963       0.007813167168      8.180428237e-13      7.761829956e-26          3.230027696          3.255050309          2.004803476           1.59299998         0.6149143108         0.4829402931        0.04998406718         0.1570827965 
                   1                    1           15.0179635                   -0                   -0                   -0                   -0                   -0                   -0       -0.03835000664       -0.01268231665       -0.04346375957       0.008373473336        -0.0648598628        0.01186920667       -0.04780159996       0.002844097151 
                   0                   35            0.6430401        -0.1329198365       -0.03533596197       -0.02065200943     -5.949622784e-07     -6.578040191e-30     -3.802268493e-59        -0.3546184779        -0.2692413671        -0.2770283379       -0.09098828821       -0.08139725554       -0.02663865543        -0.3719064258      -0.003453719614 
                   1                    2          -2.44528194         0.8611178178          0.228923141         0.1337935237      3.854448158e-06      4.261566796e-29      2.463290081e-58          2.298898688          1.987291596          1.795850924         0.5791368769         0.9113186199        0.07475137745          0.197569759        0.00748367827 
                   1                    1          14.98277777       0.008313162209       0.002210005606       0.001291631926      3.721053276e-08      4.114082336e-31      2.378040448e-60        0.01537721395        0.01069973585        0.01130255959        0.00491219678       0.004373749547        0.00181228229        0.02449257858      0.0002157809281 
                   0                   36           2.15449191        -0.4609478944        -0.2073046367        -0.2677327098      -0.009027704446     -3.168852281e-12     -1.363460909e-24          -2.88784325         -2.799275184         -1.699054408         -1.411187857        -0.6002426879        -0.2944257587        -0.3147597271       -0.09914446062 
                   1                    3          -0.03586364         0.2745390309         0.1234699513         0.1594607103       0.005376870705      1.887357866e-12      8.120727766e-25          1.671032332          1.766784701         0.9718898631         0.8792594475       -0.05538735362         0.3580698514        -0.4788932272         0.1030673073 
                   1                    1          14.95006065        0.01509116774       0.006787034032        0.00876541423      0.0002955618276      1.037463928e-13      4.463892238e-26        0.03833068355       -0.02256427363        0.06468299684        0.03580173672        0.06774469751        0.03463827604         0.1424656356        0.09521865312 
                   0                   37           2.88930347        -0.6605800608        -0.1728963372       -0.09782234328     -2.117412707e-06     -6.671672716e-30     -8.034950751e-60         -1.714289102         -1.510146622         -1.342121485        -0.4255106121        -0.6741669654       -0.03415324368         0.1449675478      -0.002150489431 
                   1                    4          -1.25525384          0.577287105         0.1510957291        0.08548786241      1.850426805e-06      5.830437302e-30      7.021818751e-60            1.4910617          1.270793172          1.157364405         0.3818181922         0.5008008319        0.04292704809         0.4260551719       0.003256765852 
                   1                    1          15.00269145       0.003591650835      0.0009400575505      0.0005318714896      1.151261985e-08      3.627466269e-32      4.368696436e-62      -0.001388970227       0.009849821341      -0.004656501799       0.003738232122       -0.02263074974      0.0005340183251        -0.0564649925      0.0001757517759 
                   0                   38           4.34045276        -0.7091767466        -0.1220831632       -0.02302895094      -3.74652031e-11     -1.123147344e-52    -4.151769392e-105        -0.7221165406        -0.5501514254        -0.6426347724         -0.088277388        -0.3683871159      -0.002239923537        -0.1919211245     -3.820851899e-06 
                   1                    1          -1.27737271         0.4123213341        0.07098017947        0.01338922606      2.178258467e-11      6.530073264e-53     2.413873696e-105         0.4206329973         0.3479761205         0.3723763169        0.05349041957         0.2057973554       0.001143766115        0.04852672421      5.814147654e-06 
                   1                    1           15.0179635                   -0                   -0                   -0                   -0                   -0                   -0      -0.002884468054        0.04473860388      -0.003217217321      0.0003634740878      -0.005738206543     -7.559670114e-07       -0.02730177683      6.678192958e-08 
                   0                   39            4.9030403        -0.2542095381       -0.02998614781      -0.001388898113     -2.132736087e-17     -2.774834775e-80     -2.38960947e-159       -0.08540139223       -0.06297901881       -0.08060890767      -0.005244555134         -0.055448649      -4.89999138e-08       -0.02781740411     -2.201319515e-40 
                   1                    2          -2.44528194         0.1921208902        0.02266227088        0.00104967085      1.611832344e-17       2.09710356e-80     1.805966457e-159        0.06453086792        0.04771510096        0.06088809602       0.003986958464        0.04196016081       2.20581567e-08         0.0231958361      4.706565383e-40 
                   1                    1          14.98277777       0.001854719635      0.0002187797418      1.013343803e-05      1.556049992e-19      2.024526923e-82     1.743465504e-161      0.0005578957312      0.0005025399207       0.000516339457      4.542897007e-05      0.0002733035865      4.023581693e-10     -0.0002356370494      3.821783517e-42 
                   0                   40           6.41449211       -0.03422955245      -0.003507512683     -8.482173885e-05     -5.616261007e-21     -4.766401275e-93    -2.747007279e-183      -0.006906658758      -0.005134199064      -0.006599188446     -0.0003359605496      -0.004770198265     -1.213003305e-09      -0.001558581364     -7.366353342e-46 
                   1                    3          -0.03586364       0.006675590726      0.0006840498183      1.654229088e-05      1.095306751e-21      9.295635458e-94     5.357328684e-184       0.001347826722       0.001003502791        0.00128767641      6.572270979e-05      0.0009301700143      2.247261772e-10      0.0003276776085      2.330484935e-47 
                   1                    1          14.95006065      0.0003669513187      3.760161358e-05      9.093151005e-07      6.020804349e-23      5.109728606e-95       2.9448762e-185      7.406332886e-05      5.456180295e-05      7.079072118e-05       3.57600856e-06      5.141957448e-05      1.283121622e-11        1.8312558e-05      1.053681669e-47 
                   0                   16          -5.63069693         0.5135169254        0.06784772402       0.005016688474      3.412938962e-15      3.172854395e-71     9.210412637e-142         0.2477787282         0.1762033299         0.2323667577        0.01692241702         0.1571709708      2.879911825e-05        0.06715103033      2.149783813e-18 
                   1                    4           1.22154616       -0.00198881401     -0.0002627693409     -1.942927258e-05     -1.321806641e-17      -1.22882362e-73    -3.567126375e-144     -0.0009685357982        0.01035768287     -0.0009004731034     -7.489404103e-05     -0.0005499789511     -6.164604985e-07     -0.0005010901783      7.803536247e-19 
                   1                    1          15.00269145       0.001373183485      0.0001814299968       1.34150082e-05      9.126459491e-18       8.48445502e-74     2.462934696e-144      0.0002709364765      -0.007341196255      0.0001994573232      7.819608795e-05     -0.0001683237664     -1.750045089e-08     -0.0003750967442      3.175305522e-20 
                   0                    8          -4.17954764         0.9092325462         0.1968793749        0.07160755061      3.252824998e-08      4.514180833e-39      3.503902196e-78          1.593826184          1.273417661          1.324008786         0.3035487294         0.7390868315       0.006612970741          0.307657397      1.319941286e-06 
                   1                    1           1.19942729                   -0                   -0                   -0                   -0                   -0                   -0     -0.0002466142713        -0.1921589654      -5.61481634e-05     -0.0001246672388        0.00261974987      0.0004668539078         0.0220441207      1.337441173e-10 
                   1                    1           15.0179635                   -0                   -0                   -0                   -0                   -0                   -0      -0.007602098041         0.1294671727      -0.008480456095      0.0009725048491       -0.01460715431      7.407306672e-05       -0.02920264135     -3.206214137e-09 
                   0                    9           -3.6169601         0.8527223301         0.2115170927         0.1065382952      8.299317087e-07      2.948248189e-32      1.307549527e-64          1.986870893          1.706377867          1.572840822         0.4700141952         0.7595375673        0.03105489354          0.201711345       0.002145635868 
                   1                    2           0.03151806         0.2693511305        0.06681233273        0.03365246721      2.621522108e-07      9.312691302e-33      4.130183189e-65         0.6266832154          0.548499121         0.4965070893         0.1478052963         0.2989519906       0.003123705261        -0.1447891122      0.0001202741854 
                   1                    1          14.98277777       0.008114771174       0.002012862507       0.001013851586      7.897888526e-09      2.805644765e-34      1.244304838e-66         0.0131782189        0.01510352261       0.009272730939        0.00447949305      -0.001298388521      0.0005674541916        -0.0222193737      0.0001037381152 
                   0                   10          -2.10550829         0.4952631761         0.2125261929         0.2611744854       0.005633173514      2.759417014e-13      1.013341438e-26          2.871947657          2.877753482          1.742683764          1.380465242          0.288286819         0.4237087706        -0.2132742231         0.1391851735 
                   1                    3           2.44093636        -0.2812830455        -0.1207035323        -0.1483331655      -0.003199341841     -1.567201558e-13     -5.755238416e-27         -1.663181952         -1.538073364        -0.9797206825        -0.7847664994        -0.5874155178       -0.06262743251        -0.4314592385        -0.0398199319 
                   1                    1          14.95006065        0.01538443891       0.006601734974       0.008112904634      0.0001749841659      8.571621013e-15      3.147758646e-28         0.0366230348       -0.02407983942        0.06490726671        0.03091424084        0.07460804218        0.03451090394         0.1053436817        0.09138678355 
                   0                   11          -1.37069673         0.2263183144         0.1777437745           0.33365799         0.3303674803      0.0003452078061      1.828769771e-08           2.74500827          3.106599309         0.9220756942          2.248331569       -0.03458066048         0.6597356431        -0.0668358242         0.2548478318 
                   1                    4           1.22154616      -0.003449614322      -0.002709226038      -0.005085719131      -0.005035564155     -5.261765029e-06     -2.787467912e-10         0.3145478434         0.4708707053        -0.0278947838       -0.02044818432        0.01432382159        0.04583056673        -0.1278305883        -0.1692223739 
                   1                    1          15.00269145       0.002381798094       0.001870594452       0.003511452296        0.00347682262      3.633003793e-06      1.924616824e-10        -0.2822981544         -0.357278152       -0.05132774078        0.04096996773       -0.05670314689         0.0713823582        0.08055718294         0.1202401159 
                   0                    1            0.6430401       -0.07974372379       -0.07047858699        -0.1380349477        -0.2008805577      -0.001148547595     -5.089742244e-07         -1.223808634         -1.381453205        -0.3292184876        -0.9561701916        -0.1089175916        -0.6079458403       -0.01303955084         0.4000749584 
                   1                    2           0.03151806         0.1655447809         0.1463107275         0.2865550301         0.4170200027       0.002384338867      1.056610131e-06          2.212579954            2.5670038         0.5902480599          2.064991487        -0.1734498805         0.5233244906       -0.08769573529         0.4349178992 
                   1                    1          14.98277777       0.004987385847       0.004407919402       0.008633074953        0.01256360755      7.183323964e-05      3.183260979e-08       -0.05645374413       -0.01857831788      -0.008130498376        0.05883232327         0.1206289142         0.1318477588         0.1289101796         0.2590587666 
                   0                    2           2.15449191        -0.4612504933        -0.2071257919        -0.2670865132      -0.008880884995     -2.931020926e-12     -1.167657773e-24         -2.884574712         -2.815391542         -1.678871904         -1.427184722        -0.5378024765        -0.2853628209        -0.2844721755       -0.09567160155 
                   1                    3           2.44093636        -0.2761021246         -0.123984412        -0.1598765851      -0.005316051149     -1.754493744e-12     -6.989538147e-25         -1.678794197         -1.753827686         -0.981909818          -0.87601934        0.02175856056         -0.348785759         0.4308969552        -0.1067527189 
                   1                    1          14.95006065        0.01510107465       0.006781178756       0.008744258128      0.0002907550436      9.595993164e-14      3.822844084e-26        0.04118493595       -0.01690675143        0.06408998976        0.03624768613        0.06843486182        0.03324810313         0.1356699102        0.09448783683 
                   0                    3           2.88930347        -0.6634275374        -0.2497102311         -0.261887239      -0.001362281835     -1.267981587e-16     -1.851177132e-33         -3.136312621         -3.064303399         -2.075283366         -1.332423185        -0.5120277519        -0.4086943321       -0.05577292424        -0.2795309641 
                   1                    4           1.22154616      -0.005224295602        -0.0019663942      -0.002062284536     -1.072756646e-05     -9.984979899e-19      -1.45774723e-35         0.1545761238          0.424188414       -0.02306958154      -0.003540786368       -0.01038469995      -0.009885539569       -0.04172138694       -0.08685781634 
                   1                    1          15.00269145       0.003607132898       0.001357703651       0.001423911463      7.406885222e-06      6.894163774e-19      1.006506598e-35        -0.1305739423        -0.3051970411       -0.01603522203        0.01190422713       -0.02937784442       0.009460925375        0.02025008965        0.06022511101 
                   0                    4           4.34045276        -0.9092325462        -0.1968793749       -0.07160755061     -3.252824998e-08     -4.514180833e-39     -3.503902196e-78         -1.577649918         -1.294724626         -1.317534262        -0.3044497794        -0.5945793055       -0.03550548305        -0.2474731093       -0.03446052491 
                   1                    1           1.19942729                   -0                   -0                   -0                   -0                   -0                   -0       0.007602151298        -0.2930232817      -0.001117215876       0.001027788075      -0.001108553656     -8.058893001e-05          0.012618083      -0.001657602259 
                   1                    1           15.0179635                   -0                   -0                   -0                   -0                   -0                   -0       -0.01305114668         0.1985178193      -0.008761752649       0.001191142708       -0.01163020418      5.227889661e-05       -0.01564227708       0.001144497191 
                   0                    5            4.9030403        -0.7886657752        -0.1341922594       -0.02439081179     -2.898382223e-11     -2.222643377e-53    -1.497169374e-106        -0.7806219617         -0.636899719        -0.6922742596       -0.09778014556        -0.3787036515      -0.001550263339       -0.05079963778     -0.0004699924349 
                   1                    2           0.03151806         0.1909949778        0.03249798383       0.005906840011      7.019151404e-12      5.382682192e-54     3.625766963e-107         0.1891455333         0.1520538388         0.1666888174        0.02482705646         0.0866386569      0.0003149140505        0.04939750682      0.0001504011807 