ITEM: TIMESTEP
0
ITEM: NUMBER OF ATOMS
4
ITEM: BOX BOUNDS pp pp pp
0.0000000000000000e+00 4.2600002000000003e+00
0.0000000000000000e+00 2.4767999999999999e+00
0.0000000000000000e+00 3.0000000000000000e+01
ITEM: ATOMS id type c_1[1] c_1[2] c_1[3] c_1[4] c_1[5] c_1[6] c_1[7] c_1[8] c_1[9] c_1[10] c_1[11] c_1[12] c_1[13] c_1[14] c_1[15] c_1[16] c_1[17] c_1[18] c_1[19] c_1[20] 
1 1          13.95781377          12.59822694          6.112747263          1.201672575         0.5693044315         0.3698984927      0.0001760147137      1.633009417e-08          49.36218674          45.85037285          41.26486082          23.41628402          21.50898601          4.260361425          15.36655073          2.558073811           5.18444254         0.9114988554          3.314435718         0.7101383862 
2 1          13.95481013          12.59518723          6.124539118          1.237358664         0.5984834391         0.3931633599      0.0001893662993      1.669079686e-08          49.35352625          45.90863543           41.1868296          23.54838742          21.35447755          4.342394016          15.20254015          2.634185628          5.067767649         0.9557362854          3.222488575         0.7617494257 
3 1          13.95367831          12.59432399          6.102994895          1.180113461         0.5484042707         0.3508683805      9.734941289e-05      4.010386745e-09          49.35317606          45.88542214          41.28989161          23.41900157          21.41583983          4.194499715          15.19245415          2.521652365          4.879588477         0.8891426658          3.026098874         0.7098139951 
4 1          13.96675328          12.60770713          6.097283055          1.140383189         0.5171847905         0.3266029435      8.399782618e-05      3.649684053e-09          49.35613424          45.84617783          41.38044854          23.31994729          21.59054909          4.149582376          15.36724885          2.492355044          5.005853936         0.9478859365          3.134151004         0.8388926924 
