ITEM: TIMESTEP
0
ITEM: NUMBER OF ATOMS
4
ITEM: BOX BOUNDS pp pp pp
0.0000000000000000e+00 4.2600002000000003e+00
0.0000000000000000e+00 2.4767999999999999e+00
0.0000000000000000e+00 3.0000000000000000e+01
ITEM: ATOMS id type c_1[1] c_1[2] c_1[3] c_1[4] c_1[5] c_1[6] c_1[7] c_1[8] c_1[9] c_1[10] c_1[11] c_1[12] c_1[13] c_1[14] 
1 1          13.95427891          12.59449909           6.12440217          0.396627348      0.0002885122607       6.50666659e-08          48.58735241          43.39736551          36.01488415          14.78897273          15.25308701          2.571102295          3.305559201         0.7697308159 
2 1          13.95357635          12.59375647          6.129093675         0.4082038386      0.0003094646367      6.726247574e-08          48.57852335          43.43870594          35.97673375          14.83519976          15.20024158          2.616362515          3.258493787         0.7946041002 
3 1          13.95949141          12.60020099          6.092847694         0.3286825522      9.779959917e-05      5.270517261e-09          48.60824717          43.32680731          36.25034082           14.5027471            15.238356          2.497549994          3.018244553         0.6557248655 
4 1          13.95662096          12.59752836          6.083555049          0.316722017      7.684722317e-05      3.074707424e-09          48.61090644          43.31091034           36.2868744          14.43200633          15.29518136          2.442450073          3.022059724         0.5736074714 
