ITEM: TIMESTEP
0
ITEM: NUMBER OF ATOMS
4
ITEM: BOX BOUNDS pp pp pp
0.0000000000000000e+00 4.2600002000000003e+00
0.0000000000000000e+00 2.4767999999999999e+00
0.0000000000000000e+00 3.0000000000000000e+01
ITEM: ATOMS id type c_1[1] c_1[2] c_1[3] c_1[4] c_1[5] c_1[6] c_1[7] c_1[8] c_1[9] c_1[10] c_1[11] c_1[12] c_1[13] c_1[14] c_1[15] c_1[16] c_1[17] c_1[18] c_1[19] c_1[20] 
1 1          13.96235012          12.60275542          6.102330222          1.166698273         0.5421561292         0.3487832802      0.0001577841582      1.412003468e-08          49.38061241           45.9105739           41.3441514           23.3969597          21.48000943          4.215277658          15.25191695          2.571210132          4.957895324          0.901742709          3.029525406         0.6386693103 
2 1          13.96689678          12.60746491          6.095175059          1.140590004         0.5214288662         0.3320606049       0.000128845601      1.102347223e-08          49.37168899          45.83644138          41.39749886          23.31146308          21.58772014          4.164085009           15.3592139          2.523801176          5.042470073         0.9145560148           3.12088464         0.7153443915 
3 1            13.957977          12.59855578          6.120833634          1.217739785         0.5794674041         0.3764768023      0.0001471943502      1.077084453e-08          49.37737859          45.90053186          41.25123544          23.48565244          21.46116677          4.273986042            15.320457          2.551738193          5.140897888          0.934882005          3.317454518         0.7876755558 
4 1          13.95537777          12.59575103          6.126532152          1.238738281          0.597965858         0.3921414566      0.0001761329059      1.386740698e-08          49.36163977          45.91704889          41.20574463          23.55324292          21.36983655           4.31981206          15.22807437          2.594521793          5.091495439         0.9292887341          3.261347223         0.7528220934 
