ITEM: TIMESTEP
0
ITEM: NUMBER OF ATOMS
4
ITEM: BOX BOUNDS pp pp pp
0.0000000000000000e+00 4.2600002000000003e+00
0.0000000000000000e+00 2.4767999999999999e+00
0.0000000000000000e+00 3.0000000000000000e+01
ITEM: ATOMS id type c_1[1] c_1[2] c_1[3] c_1[4] c_1[5] c_1[6] c_1[7] c_1[8] c_1[9] c_1[10] c_1[11] c_1[12] c_1[13] c_1[14] c_1[15] c_1[16] c_1[17] c_1[18] c_1[19] c_1[20] 
1 1          13.95997088          12.60020201          6.122892966          1.225989608         0.5908748152         0.3881154447      0.0002200422166      2.538301533e-08          49.33496341          45.89343974          41.22954294          23.51517405          21.42985759          4.296808615          15.26864476           2.58079271          5.075967307         0.9929302421          3.292054942         0.8827398009 
2 1          13.95677419          12.59718722          6.117766676           1.21718562         0.5824495347         0.3806205752      0.0001966538721      2.082630791e-08          49.37614376          45.88029308          41.25044329          23.47968665          21.45531775          4.278949256          15.29649407          2.571500133          5.069314095         0.9363305529          3.248512632         0.7255320277 
3 1          13.96675724          12.60750306            6.1035652           1.15742444         0.5309820264         0.3377364692      0.0001047657162      7.024630348e-09          49.38782331          45.87165974          41.36700656          23.36359948           21.5558112          4.207649707          15.35212573          2.554631007          5.101879991         0.9466553613          3.195063194         0.7646208622 
4 1          13.96157879           12.6023155          6.103079405          1.168163773         0.5408275966         0.3459879617      0.0001281540622      1.158133776e-08          49.38114075          45.84464069          41.34311429          23.37349016           21.5205065          4.206995974          15.31179271          2.545206425          5.040365508         0.9304280095          3.165045209         0.7238712805 
