ITEM: TIMESTEP
0
ITEM: NUMBER OF ENTRIES
582
ITEM: BOX BOUNDS pp pp pp
0 4.26
0 2.4768
0 30
ITEM: ENTRIES c_2[1] c_2[2] c_2[3] c_2[4] c_2[5] c_2[6] c_2[7] c_2[8] c_2[9] c_2[10] c_2[11] c_2[12] c_2[13] c_2[14] c_2[15] c_2[16] c_2[17] 
                   0                   99           0.66944353       -0.01422090314      -0.001534460381     -4.758361477e-05      -2.74950795e-20     -7.842083789e-89    -7.082410033e-175      -0.003516972102      -0.002545258459      -0.003354956148      -0.000177252493      -0.002467355238     -8.551490074e-11      -0.001554865422      2.441340699e-56 
                   1                    2          -5.03137677         0.1429109349        0.01542034044      0.0004781847404      2.763078744e-19      7.880790097e-88     7.117366806e-174        0.03535471087         0.0254741959        0.03372563483       0.001781453954        0.02469439519      3.341847841e-09        0.01327989147      1.701333413e-56 
                   1                    1           15.0373202      0.0003555768106      3.836736128e-05      1.189771832e-06      6.874818414e-22      1.960820009e-90       1.7708726e-176      6.349147009e-05      4.557733406e-05      5.971936598e-05      4.130649387e-06      4.134324473e-05      2.522534045e-11      3.739127893e-05       1.28078071e-57 
                   0                   77          -3.59055667         0.4966954596        0.07650088043       0.009975074872      7.283461565e-13      3.214591445e-60     6.213840879e-120         0.3790838345         0.3046028677         0.3426656368        0.04001768554         0.1912761434      1.261621311e-05        0.04171000827     -1.938398599e-25 
                   1                    2          -2.55457677         0.5187128335        0.07989198952        0.01041724713      7.606320761e-13      3.357086932e-60     6.489286235e-120         0.3950976706          0.318864303         0.3574037987        0.04143079589         0.2040335905      9.357788589e-06        0.01957295174      1.393083915e-24 
                   1                    1           15.0373202       0.002132507674      0.0003284481697      4.282689383e-05      3.127074626e-15      1.380149706e-62     2.667844673e-122     -0.0004748024383      0.0007200554886     -0.0008484115732      0.0004083073728      -0.003248864746     -4.217165043e-08       -0.00502975962      5.631781853e-26 
                   0                   79          -1.32666931         0.2041113458        0.03283823081       0.004968767873      1.259805497e-12       1.19962523e-57     1.900822546e-114         0.1766654138          0.142056182         0.1602820551        0.01811146269        0.09994801302      0.0002701228962      0.0004896378133      6.361313724e-05 
                   1                    4          -3.69814019         0.7350783105         0.1182622707         0.0178943188      4.537012349e-12       4.32028158e-57     6.845545113e-114         0.6331909557          0.509600147         0.5705926809        0.06908791925         0.3250878634      0.0008701376399        0.05957496711      0.0002752054655 
                   1                    1          14.99372492        0.00880896801       0.001417221191      0.0002144403931      5.437025698e-14       5.17730175e-59     8.203505265e-116       0.006300562882        0.00514392163       0.005634368105      0.0007371081677       0.003348119339      7.287120209e-06     -0.0002562521869      4.542972322e-06 
                   0                   68           0.04515716                   -0                   -0                   -0                   -0                   -0                   -0       -0.00109484465      -0.008923024274      0.0002312263166      -0.001374901768        0.01034022369      5.816769547e-05        0.04592161055     -8.767866594e-06 
                   1                    1          -3.71130006         0.8137120297         0.1388539779        0.02547174737      3.272168883e-11      3.518983774e-53     3.615938187e-106           0.81643348         0.5551437047         0.7298405438        0.09638030572         0.4382049901       0.003620424071         0.1954004646      1.357672301e-05 
                   1                    1          15.05292974                   -0                   -0                   -0                   -0                   -0                   -0      -0.004074103565      -0.002703644846      -0.004148167214      8.489034695e-05      -0.003955978403      2.202147748e-07      -0.001673147226      2.192301016e-07 
                   0                   69           0.66944353        -0.1446103208       -0.03625914755       -0.01870472498     -1.796977879e-07     -1.601652169e-32     -2.241941592e-64        -0.3448469131        -0.2684997013        -0.2754517961       -0.08025619398        -0.1059209263       -0.01983884532        -0.2767019589     -0.0009940897738 
                   1                    2          -2.55457677         0.8795123289         0.2205262192         0.1137611488      1.092912449e-06      9.741163846e-32      1.363537028e-63          2.096300648          1.794640364          1.662378793         0.4961350605         0.8636870821        0.04812079375         0.1946438416       0.003252259852 
                   1                    1           15.0373202         0.0036158095       0.000906616965       0.000467689456      4.493129984e-09      4.004741221e-34      5.605708958e-66      -0.007303524835      -0.005306195559      -0.008949213913       0.001978818709      -0.008403050098      0.0006129836118       0.005700532207      2.485604471e-05 
                   0                   71           2.93333089        -0.2559871114       -0.03368704657      -0.002451915577     -1.467169936e-15     -7.932131779e-72    -1.171764587e-142        -0.1227382417         -0.086712802         -0.115290428      -0.008161233279       -0.07721731489     -8.805068634e-07       -0.03534745817     -1.976345085e-33 
                   1                    4          -3.69814019         0.4378853615        0.05762424712       0.004194187484      2.509705407e-15      1.356851278e-71     2.004392163e-142           0.20941893         0.1594485395         0.1964852764        0.01417302934         0.1304076374      1.484760952e-06        0.04640101074      3.071494659e-33 
                   1                    1          14.99372492       0.005247492799      0.0006905524788      5.026194196e-05      3.007559104e-17      1.626011723e-73      2.40200618e-144       0.002211965479       0.005055347743       0.002050039756      0.0001771459146       0.001135415672      6.496810689e-09     -0.0008795420544      2.631895061e-34 
                   0                   73           4.92944373        -0.1781639394       -0.02002241883     -0.0007487380544     -2.025535597e-18     -2.405127647e-84    -3.573949646e-167        -0.0503754105       -0.03666835755       -0.04773616636      -0.002886876081       -0.03342820434      -1.78751513e-08       -0.01650248677     -1.218332936e-42 
                   1                    2          -2.55457677         0.1384985305        0.01556474106      0.0005820432606       1.57458184e-18      1.869663668e-84     2.778265767e-167        0.03915299444        0.02878200418        0.03709570031       0.002250557545        0.02602846559      9.264834427e-09        0.01409343664      2.211397159e-42 
                   1                    1           15.0373202      0.0005693886097      6.398902749e-05      2.392868732e-06      6.473346408e-21      7.686472869e-87     1.142187485e-169      8.081562119e-05      0.0002721076867      6.538663927e-05      1.682667756e-05     -4.568012104e-05      7.910516781e-11     -0.0005198784085      2.666837812e-44 
                   0                   50          -5.58666951         0.2308198221        0.02629028102       0.001044127235      4.611323184e-18      3.870744587e-83     6.443144677e-165        0.06845645932        0.05013617237        0.06482597661       0.003973315561        0.04557966939      1.708924399e-07        0.02446008969      1.212690579e-33 
                   1                    4          -1.22134019         0.1009720309        0.01150067201      0.0004567530051      2.017221323e-18      1.693255538e-83      2.81855084e-165        0.02997089482        0.02184686685        0.02841772565       0.001699204969        0.02003825757      5.971649231e-08       0.009589614729      1.789994752e-33 
                   1                    1          14.99372492       0.002426503304      0.0002763777095      1.097643244e-05      4.847673322e-20      4.069136889e-85     6.773383543e-167      0.0006605497079      0.0005407061594      0.0006177117963      4.686880683e-05       0.000380701407      1.576291862e-09     -0.0001013804025      3.027715255e-35 
                   0                   42          -4.21484304         0.7091767466         0.1220831632        0.02302895094       3.74652031e-11      1.123147344e-52     4.151769392e-105         0.7223010119         0.5761164962         0.6400418233        0.09142791754         0.3559319037       0.003332513549         0.1311136168      5.009256886e-06 
                   1                    1          -1.23450006         0.4123213341        0.07098017947        0.01338922606      2.178258467e-11      6.530073264e-53     2.413873696e-105         0.4182132293         0.3153048249         0.3721954721        0.05127338729         0.2208239695       0.001932321165         0.1406285164     -8.329583562e-07 
                   1                    1          15.05292974                   -0                   -0                   -0                   -0                   -0                   -0      -0.004646105381        0.03061438559      -0.005261629901      0.0006715803444      -0.009650591518      -2.21405605e-08       -0.04153129546      7.365431623e-08 
                   0                   43          -3.59055667         0.8397096098         0.2090188753         0.1061022798      8.849384689e-07      4.241553589e-32      2.735020123e-64          1.968011415          1.684532973          1.556567982         0.4692855689         0.7377744315        0.04466597618         0.2838481303       0.003189272955 
                   1                    2          -0.07777677         0.3048867845        0.07589182267        0.03852424998       3.21308749e-07      1.540048631e-32       9.93047455e-65         0.7136717496         0.6388747002         0.5659290671         0.1679180366         0.3354024454       0.005087454489        -0.2481212009      0.0004755959471 
                   1                    1           15.0373202       0.003605201442      0.0008973996986       0.000455538543      3.799386606e-09       1.82106468e-34         1.174251e-66      -0.008025059878        0.01089694903       -0.01252038394       0.005022278485       -0.03655113562      0.0003863754857       -0.09119704688      0.0001848256971 
                   0                   44          -2.13957899         0.4600935975        0.09787754991        0.03400514912      1.038125325e-08      2.531863136e-40      2.238899548e-80         0.7720164491         0.5110508534         0.6559685458         0.1389254613         0.3057395338        0.02043260712         0.1659395866        0.02257129196 
                   1                    3          -2.47201862         0.7822153665         0.1664038013        0.05781291097      1.764939974e-08      4.304476875e-40      3.806402958e-80          1.313247285          1.161339589          1.106109439         0.2400134509         0.4936692645        0.03423226111         0.1726540164        0.02934086347 
                   1                    1          14.93988351        0.02380692361       0.005064542013       0.001759550648      5.371639696e-10      1.310078484e-41      1.158488421e-81        0.03734493918     -0.0006038901545        0.03547567254       0.006132360351        0.02078472838       0.001323153827        0.02127608508       0.005706474984 
                   0                   45          -1.32666931         0.3243979598         0.1215020654         0.1265949905       0.000621001017      4.464095794e-17      4.719023919e-34          1.458692491           1.66787852          1.027315431         0.6301666527         0.3406719048          0.218778444       -0.02668557349         0.1938584963 
                   1                    4          -1.22134019         0.5825808506         0.2182035197         0.2273498184       0.001115245302      8.016994703e-17      8.474815842e-34          2.761907436          2.554334061          1.817430031          1.146480429         0.4227657161         0.3866368729        0.07272951168         0.2359551073 
                   1                    1          14.99372492        0.01400025676       0.005243744793       0.005463543522      2.680095058e-05      1.926599273e-18      2.036620285e-35        -0.1447089974        0.09491499162        0.02695672964        0.02354979925        0.01217853699        0.02500369054       -0.01266446226         0.1420379542 
                   0                   34           0.04515716                   -0                   -0                   -0                   -0                   -0                   -0        0.01949067967         -0.142861399      -0.001462113918      -0.003370502015         0.3745539747        -0.1746824818         0.5993992114       -0.01036051503 
                   1                    1          -1.23450006         0.5572350607         0.2433932895         0.3048959963       0.007813167168      8.180428237e-13      7.761829956e-26          3.230090634          3.263275943          1.976381673          1.621205729         0.5952120233         0.4635488563        0.03768649932         0.1546589408 
                   1                    1          15.05292974                   -0                   -0                   -0                   -0                   -0                   -0       -0.05797315553        -0.0347873264       -0.06523873501        0.00980571123       -0.06132865222       0.007770811856       -0.01944549939      0.0003206430962 
                   0                   35           0.66944353       -0.09785933374       -0.07635983524        -0.1429693159        -0.1382586095     -0.0001301842617     -6.055185992e-09         -1.302217806         -1.401190748        -0.4184048966        -0.9459305505        -0.1615197107        -0.4729901323       -0.02773002516         0.2269305711 
                   1                    2          -0.07777677         0.2069271949          0.161465707         0.3023139272         0.2923529635      0.0002752794553      1.280391562e-08          2.435870323          2.757858863         0.8018413149          2.067859294       -0.08918952036         0.5293802589       -0.07451466511          0.350469946 
                   1                    1           15.0373202       0.002446856535       0.001909287083       0.003574778119       0.003456992494      3.255103007e-06      1.514027416e-10        -0.1432847654        0.02014910728       -0.09406237354        0.05265114281       -0.05622557325         0.0727942636       -0.09405514824         0.2014487421 
                   0                   36           2.12042121        -0.4433593078       -0.09612825059       -0.03508091637     -1.640814851e-08     -2.587593051e-39     -2.356287843e-78        -0.7848896548        -0.5890495345        -0.6565777429        -0.1448936032        -0.3812534952      -0.005349938061        -0.2671976048     -1.352032991e-12 
                   1                    3          -2.47201862         0.7935268313         0.1720508507        0.06278800945      2.936739089e-08      4.631287713e-39       4.21729643e-78          1.398269372          1.176976539           1.16347313         0.2648330805         0.6371526222       0.008553597016         0.1603348986     -4.246768949e-13 
                   1                    1          14.93988351        0.02415119092       0.005236411398       0.001910969036      8.938040105e-10      1.409544194e-40      1.283544894e-79        0.04339161458        0.01376214233        0.03813670036        0.00602317723        0.03090622177       0.000469636969        0.04743118648       6.02117671e-14 
                   0                   37           2.93333089        -0.6737391739        -0.1721094614       -0.09246830944     -1.269706767e-06     -5.425786662e-31     -5.383601058e-62          -1.66568064         -1.467767867         -1.305729176         -0.410562543        -0.6478650272       -0.03009641329         0.1305530742      -0.001792603473 
                   1                    4          -1.22134019         0.5747060327         0.1468110355        0.07887636243      1.083072155e-06      4.628248508e-31       4.59226378e-62           1.41190439          1.196501576          1.100356788         0.3558138972         0.4733774396        0.03991619465         0.4332616938       0.002204016895 
                   1                    1          14.99372492        0.01381101355       0.003528080592       0.001895512572      2.602778351e-08      1.112234764e-32      1.103587115e-63        0.02492140378        0.03192238082        0.01831006941       0.007718511503      -0.002891272436       0.001804520236        -0.0656330557      0.0002068617941 
                   0                   38           4.30515736        -0.7091767466        -0.1220831632       -0.02302895094      -3.74652031e-11     -1.123147344e-52    -4.151769392e-105        -0.7211959792        -0.5609595241        -0.6387320783        -0.0917140748        -0.3627439868      -0.002895517894        -0.1889290866     -3.810495305e-06 
                   1                    1          -1.23450006         0.4123213341        0.07098017947        0.01338922606      2.178258467e-11      6.530073264e-53     2.413873696e-105         0.4197776457         0.3426152739         0.3703540239        0.05484530729          0.202358546       0.001587130775        0.04840933944      7.557795908e-06 
                   1                    1          15.05292974                   -0                   -0                   -0                   -0                   -0                   -0      -0.004589868678        0.03007980498      -0.005083167781       0.000535917221      -0.009438868565     -4.225690039e-06       -0.04623012526      4.032121972e-07 
                   0                   39           4.92944373        -0.7569594139        -0.1246196298       -0.02035417333      -9.81246216e-12     -1.507080814e-55    -7.688085473e-111        -0.6860623326         -0.557483619        -0.6117244917       -0.08215214768        -0.3393293259      -0.001172498072       -0.04696429113     -0.0002422309781 
                   1                    2          -0.07777677         0.2045835105        0.03368096212       0.005501124838      2.652015311e-12      4.073189103e-56     2.077859772e-111         0.1853356328         0.1505464977           0.16490998         0.0225436002        0.08738087786      0.0002708774233        0.02182687507      8.416326866e-05 
                   1                    1           15.0373202        0.00241914312      0.0003982680108      6.504927142e-05      3.135934356e-14      4.816432844e-58     2.457011398e-113        -0.0010317373      0.0006003916573      -0.001627660414        0.00065319118      -0.004625883162     -4.430524838e-06      -0.005927917152      4.098561517e-06 
                   0                   16          -5.58666951         0.5542746737        0.07521673382       0.006171249954      9.818251981e-15      3.335299953e-69     8.591419595e-138         0.2899516692         0.2117990699         0.2709951214        0.02083819936         0.1817589599      5.296745725e-05        0.07572907562      3.739634452e-17 
                   1                    4           1.25545981      -0.001295171723     -0.0001757586831     -1.442033853e-05     -2.294227562e-17     -7.793583922e-72     -2.00755406e-140     -0.0006477272424       0.001194071882     -0.0006138580235     -3.607913347e-05     -0.0001766626165       7.25748073e-07       0.002220946606     -1.716848109e-17 
                   1                    1          14.99372492       0.005826836338      0.0007907191481      6.487553047e-05      1.032147961e-16      3.506248415e-71     9.031766787e-140       0.002549436968       -0.00653263665       0.002309426658      0.0002634925284       0.001136642311      4.593108616e-07      -0.001453689739      7.352539563e-19 
                   0                    8          -4.21484304         0.9092325462         0.1968793749        0.07160755061      3.252824998e-08      4.514180833e-39      3.503902196e-78          1.591585874          1.290904547          1.324111319         0.3011864092         0.7419372905       0.007780732295          0.295747075      1.231784474e-06 
                   1                    1           1.24229994                   -0                   -0                   -0                   -0                   -0                   -0      0.0002985401835       -0.02695494154      0.0003500650403     -0.0001435276599        0.00379124116     -0.0006110224106        0.04307657319     -6.145198112e-11 
                   1                    1          15.05292974                   -0                   -0                   -0                   -0                   -0                   -0       -0.01235843462          0.105460273        -0.0144918441       0.002334935049       -0.02844010887      2.620499297e-05        -0.1057500737     -5.665925788e-09 
                   0                    9          -3.59055667          0.846017127         0.2146533895         0.1136382009      1.370773314e-06      3.317176673e-31      1.617387162e-62          2.061581622          1.776182368          1.619432201         0.5032716071         0.7821933808        0.03823991302         0.2052790017       0.002983653039 
                   1                    2           2.39902323        -0.2691652204       -0.06829321188       -0.03615464795      -4.36119423e-07     -1.055378859e-31     -5.145810386e-63        -0.6541896087        -0.5704851815        -0.5146518509        -0.1588239326        -0.3142640184      -0.004621348768         0.1164760568      3.863249308e-05 
                   1                    1           15.0373202       0.003632282078      0.0009215908695      0.0004878931965       5.88526542e-09      1.424193553e-33      6.944075022e-65      -0.008553635124        0.00843024515        -0.0134171482       0.005419840404        -0.0395293406       0.000287965237       -0.07950101732      0.0002215166273 
                   0                   10          -2.13957899         0.4948606466         0.2124919908         0.2613191594       0.005672624266      2.858546876e-13      1.087554841e-26          2.882448831          2.890811198          1.744596778          1.380004396         0.2868007956         0.4359981605        -0.2265349121         0.1190572414 
                   1                    3           0.00478138          0.280308098          0.120363634         0.1480212198       0.003213192501      1.619190864e-13      6.160328794e-27          1.654053616          1.514156425         0.9820808814          0.776983705         0.5798786289           0.06040517         0.4487759046        0.02933974436 
                   1                    1          14.93988351        0.02560589775        0.01099511191          0.013521608      0.0002935223036      1.479116586e-14      5.627406071e-28         0.1144954523        0.05245471693         0.1080851218        0.05390492557        0.09665443375        0.04949379292         0.2172804955         0.1324202435 
                   0                   11          -1.32666931         0.2042214026         0.1700113945         0.3262657501         0.3947029255      0.0009984082388      1.596723374e-07          2.660514661          3.022936766         0.8150256038          2.251339713       -0.08275447061         0.6567792578       -0.08487176456         0.2146760088 
                   1                    4           1.25545981      -0.001959086785      -0.001630911707      -0.003129852756      -0.003786367519     -9.577685601e-06     -1.531729594e-09        0.03189803555       0.008803273643        0.01391852353       -0.04292812298        0.02663458914       -0.05203455755         0.1693706971        -0.0994875353 
                   1                    1          14.99372492       0.008813717803       0.007337293912        0.01408086623        0.01703445455      4.308896304e-05      6.891084405e-09        -0.1742490329        -0.2456409095     -0.0007291817411        0.08974707942        0.09981951224         0.1985069092         0.3979263882         0.4584735707 
                   0                    1           0.66944353       -0.08953147641       -0.07801689852        -0.1520954665        -0.2122579579      -0.001008660181     -3.547313423e-07         -1.344793344         -1.725882701        -0.3845745781         -1.035833462       -0.05836209225         -0.504080347       -0.03959320957       -0.02207056417 
                   1                    2           2.39902323        -0.1658904454        -0.1445553962        -0.2818135664        -0.3932870157      -0.001868919104      -6.57272087e-07         -2.155351049         -2.401452914        -0.5922698771         -2.024520866         0.1375648558        -0.5509395673         0.1011354534        -0.2912069378 
                   1                    1           15.0373202       0.002238628343       0.001950719985       0.003802966687       0.005307258405      2.522035112e-05      8.869636344e-09        -0.4813426313          0.397390715        -0.1063948801        0.06288851384       -0.06802675648         0.1001303712        -0.1113158296         0.3103224016 
                   0                    2           2.12042121        -0.4615886702        -0.2072090982        -0.2671034573      -0.008854419003     -2.883288742e-12     -1.129518573e-24         -2.885264794         -2.799098402         -1.674107485         -1.435122197        -0.5592019759        -0.2895242732        -0.2958669426       -0.08231268449 
                   1                    3           0.00478138         0.2752539112         0.1235626401         0.1592787606       0.005280054774      1.719358716e-12      6.735529379e-25          1.682886722          1.782899559         0.9744342252         0.8766505176       -0.05609992384         0.3671203399        -0.4574874745         0.0902043778 
                   1                    1          14.93988351        0.02514420224        0.01128733829        0.01454997443       0.000482328351      1.570619037e-13      6.152846737e-26         0.1177614339        0.05617818161         0.1156312807        0.05449569822         0.1278481437        0.06854095458         0.2088869792         0.1382292864 
                   0                    3           2.93333089        -0.6873507166        -0.2500692717        -0.2504287975     -0.0008616898627     -1.299486131e-17     -1.951449203e-35         -3.100545607         -2.995688615         -2.073537182         -1.267270437        -0.5308326473        -0.3901204722       -0.05950358631        -0.2507705702 
                   1                    4           1.25545981      -0.003131891264      -0.001139432532        -0.0011410707     -3.926261934e-06     -5.921066442e-20     -8.891715052e-38       0.008406032297        0.03644739877       -0.00173872499       -0.01343993553        0.02066672085      -0.005729690093        0.01136420375        -0.0464642023 
                   1                    1          14.99372492        0.01409003725       0.005126182703        0.00513355264      1.766382427e-05      2.663823221e-19      4.000285635e-37       -0.05607392483        -0.2146503462        0.02464020438        0.02350768759      -0.009381087424        0.03066268976         0.0860474258         0.2096193904 
                   0                    4           4.30515736        -0.9092325462        -0.1968793749       -0.07160755061     -3.252824998e-08     -4.514180833e-39     -3.503902196e-78         -1.576792247         -1.310267045         -1.314094122        -0.3067435129         -0.585773982       -0.04080521874        -0.2374966185       -0.03821000979 
                   1                    1           1.24229994                   -0                   -0                   -0                   -0                   -0                   -0       0.001335016257       -0.04062961914       0.001275575091      -0.001243402944        0.00335398961     -7.016437266e-05        0.01972288891      -0.001249077021 
                   1                    1          15.05292974                   -0                   -0                   -0                   -0                   -0                   -0       -0.01761403613         0.1694073957       -0.01387010378       0.001822244992       -0.02225769572      0.0003093191421       -0.05239186326       0.005619461303 
                   0                    5           4.92944373        -0.7743871648         -0.129231498        -0.0220653017     -1.546208661e-11     -1.200421966e-54    -4.631259671e-109        -0.7274734623        -0.5917628661        -0.6478178397       -0.08818553774        -0.3577973181      -0.001751139854       -0.05097442536     -0.0004174027697 
                   1                    2           2.39902323        -0.1833945769        -0.0306053057      -0.005225624666     -3.661815382e-12     -2.842904539e-55    -1.096800085e-109        -0.1723201675        -0.1372877974        -0.1525992964       -0.02180327341       -0.07911801731     -0.0003553142623       -0.05498953022     -0.0001469673602 