ITEM: TIMESTEP
0
ITEM: NUMBER OF ENTRIES
582
ITEM: BOX BOUNDS pp pp pp
0 4.26
0 2.4768
0 30
ITEM: ENTRIES c_2[1] c_2[2] c_2[3] c_2[4] c_2[5] c_2[6] c_2[7] c_2[8] c_2[9] c_2[10] c_2[11] c_2[12] c_2[13] c_2[14] c_2[15] c_2[16] c_2[17] c_2[18] c_2[19] c_2[20] c_2[21] c_2[22] c_2[23] c_2[24] c_2[25] 
                   0                   99           0.80037951       -0.01419980983      -0.001513950502     -0.0003156233634     -4.436876175e-05     -6.346742932e-12     -1.593420221e-20     -7.412455921e-90    -7.388501204e-177      -0.003340815088      -0.002449736518      -0.003318746753      -0.001574336104       -0.00318122728     -0.0001745239945      -0.002676880576     -2.168306799e-07      -0.002292061027     -1.591235133e-10        -0.0014689468      2.799078036e-30      -0.001311455982      8.800652403e-56 
                   1                    2          -5.04499209         0.1179920001          0.012580031       0.002622643006      0.0003686781024      5.273767057e-11      1.324037725e-19      6.159311361e-89     6.139406412e-176        0.02782825822        0.02031863981         0.0276476725        0.01305571259        0.02651862504       0.001431760992        0.02233436482      1.521058031e-06        0.01913719586      2.613857344e-09        0.01180823992      5.317674551e-30       0.009563713513      7.695535578e-56 
                   1                    1          14.94979921     -0.0004108169325     -4.380034019e-05      -9.13134919e-06     -1.283639628e-06     -1.836186184e-13     -4.609949114e-22     -2.144509286e-91    -2.137578909e-178      -9.04617555e-05     -6.616018985e-05     -8.983470791e-05     -4.245426384e-05     -8.593136104e-05     -4.954864683e-06     -7.178413699e-05     -5.961261569e-09     -6.147836841e-05     -1.232587754e-11     -4.208224533e-05     -7.056196962e-32     -3.790269935e-05     -1.737694034e-57 
                   0                   77          -3.45962069         0.5039222789        0.07963820239        0.03441600495        0.01134510472      6.561103133e-07      1.735417123e-12      1.861226852e-58     1.930746309e-116         0.4128344285         0.3309113626         0.4068646581         0.2391700731         0.3717910045        0.04514096189         0.2680858122      0.0004854444918          0.207362102      1.697006707e-05        0.09383950995      3.169184029e-15        0.05992708071     -2.087841547e-25 
                   1                    2          -2.56819209         0.5491733181        0.08678952624        0.03750648151        0.01236386852      7.150274812e-07      1.891253512e-12       2.02836066e-58       2.1041228e-116         0.4507268676          0.364299525         0.4443434313         0.2644774923         0.4069157069        0.04819418527         0.2974897969      0.0004906994538         0.2333841357      1.514682597e-05         0.0811764758      3.863519535e-14        0.01869527501      5.903282323e-25 
                   1                    1          14.94979921       -0.00315277034     -0.0004982533477     -0.0002153224102     -7.098021094e-05     -4.104928919e-09     -1.085757043e-14     -1.164469415e-60    -1.207963996e-118      -0.001598546648      -0.001784301548      -0.001548665154      -0.001692772429      -0.001250860216     -0.0003818052987     -0.0002853904443      -3.46422151e-06       0.000421544315     -8.282712348e-08       0.002403619278     -5.442002833e-16       0.002294146813     -1.088380685e-26 
                   0                   79          -1.35603003         0.2039347444        0.03245129742        0.01417713437       0.004731906515      2.990414553e-07      8.797664797e-13      2.191731423e-58     6.511303631e-116         0.1702235997         0.1380867763         0.1677996599         0.1003881296         0.1537567175        0.01813947804         0.1138168522      0.0002542359605        0.09070322951       7.66898055e-05        0.02600908756      2.603859052e-05      -0.002144142921      7.072142187e-06 
                   1                    4          -3.71792011          0.724036748         0.1152129909        0.05033358241        0.01679985534      1.061697473e-06      3.123466101e-12      7.781381719e-58     2.311731196e-115         0.6035633774         0.4863204566         0.5947254379          0.352853132         0.5431508287        0.06649934836         0.3922924838      0.0009104984545         0.3050086401      0.0002342479465         0.1256966681      7.905056669e-05        0.05787656028      2.302082942e-05 
                   1                    1          14.97034973      -0.006190212412     -0.0009850230507     -0.0004303311503     -0.0001436317609     -9.077070872e-09     -2.670433328e-14     -6.652757037e-60    -1.976433818e-117      -0.004751494486      -0.003804419079      -0.004681030219      -0.002730465487      -0.004278551426     -0.0005216690373      -0.003202144537     -8.539610631e-06      -0.002631784974     -9.710443544e-07       -0.00114376674     -4.029646628e-07     -0.0002941319844     -1.542891802e-07 
                   0                   68           0.04293902                   -0                   -0                   -0                   -0                   -0                   -0                   -0                   -0      -0.000420559059      -0.006461316671     -0.0002996307258      -0.009183990217        0.00111805802      -0.001599944698       0.007885356471      0.0005416209243        0.01093491562       5.24510266e-05        0.02877468467      -2.83464393e-05        0.03755768094     -8.092611424e-07 
                   1                    1          -3.70471073         0.8137120297         0.1388539779        0.06751915073        0.02547174737      3.870552671e-06      3.272168883e-11      3.518983774e-53     3.615938187e-106         0.8139742317         0.5583835465         0.7999637694         0.4245184879         0.7244360163        0.09944672669         0.5276878442       0.006025608327         0.4175999301       0.002817450253         0.2162122507      8.291990604e-05          0.181584126      1.032083725e-06 
                   1                    1          14.92788558                   -0                   -0                   -0                   -0                   -0                   -0                   -0                   -0       0.002284129207       0.001401630367       0.002295603945      0.0006317687772       0.002359883438     -8.380582873e-05       0.002544142315      -2.15022643e-06       0.002633427345      2.818453139e-07       0.001827659811     -8.200952957e-07       0.001495194453     -2.341286145e-08 
                   0                   69           0.80037951         -0.174314059       -0.04302139309       -0.03334781489       -0.02142686535     -0.0001584662957     -1.512272658e-07     -3.484199849e-33     -8.995803734e-66        -0.3985840613        -0.3283085884        -0.3831474865        -0.2544592525        -0.3144928342       -0.09582590698        -0.1684785113       -0.01959588401         -0.106496052       -0.01450533609        -0.1125338386     -0.0007967795066        -0.2572283834     -0.0006091137378 
                   1                    2          -2.56819209         0.8784464975         0.2168040391         0.1680545525         0.1079795567      0.0007985825308       7.62101822e-07      1.755844119e-32      4.533387798e-65          2.027555101          1.741201128          1.951469461          1.361569135          1.613336268         0.4708489389          1.060128826        0.08623025856         0.8169962564        0.03132749344         0.3231303037       0.003119844995         0.1180100899       0.001878149733 
                   1                    1          14.94979921       -0.00504310747      -0.001244658693     -0.0009647908798     -0.0006199040128     -4.584613335e-06     -4.375179823e-09     -1.008019341e-34     -2.602590133e-67      -0.005426216679      -0.004361697886      -0.004985988566      -0.003442618286      -0.003393247111      -0.002381637136      -0.001357377017     -0.0008741468806     -0.0008047920568     -0.0004868136405      -0.004274395104     -2.319019165e-05      -0.008112516257     -1.762238801e-05 
                   0                   71           2.90397017        -0.2507701683       -0.03289975885       -0.01034665134      -0.002365851108     -1.035159873e-08     -1.282965375e-15     -4.578269298e-72    -4.030116508e-143        -0.1195141926       -0.06835074193        -0.1185018452       -0.04402578837        -0.1123465895      -0.007857034903       -0.09135220441     -4.908019313e-05       -0.07611243327     -2.953736024e-06       -0.04020127129     -5.723519782e-12       -0.03395996681      -5.93895632e-19 
                   1                    4          -3.71792011         0.4353422102        0.05711466332        0.01796200118       0.004107166563      1.797058997e-08      2.227254485e-15      7.947970399e-72     6.996365795e-143         0.2074795965         0.1573407027         0.2057128727         0.1037217705          0.194990511        0.01369289519         0.1585565226      9.602585468e-05         0.1321512244      7.020578411e-06        0.06850126335      1.168568885e-11        0.05571548876      9.263956766e-19 
                   1                    1          14.97034973      -0.003721994444     -0.0004883065656     -0.0001535676234     -3.511456222e-05      -1.53641054e-10     -1.904209751e-17     -6.795183415e-74    -5.981601141e-145      -0.001679344762       -0.01027018169      -0.001664499805      -0.007229001678       -0.00157339703     -0.0001160356066      -0.001249132286      -5.57968958e-07      -0.000991488921     -3.216639006e-08      -0.000155417652       -7.7333953e-14      0.0002923283672     -9.270172577e-21 
                   0                   73           5.06037971        -0.1144655408       -0.01235228205       -0.00264227627     -0.0003832260824     -6.873496109e-11      -2.22318965e-19     -6.438237656e-88    -5.923540936e-174        -0.0281673262       -0.02047120235       -0.02798176449       -0.01312373567       -0.02682281798      -0.001470031294       -0.02254755624     -1.678303581e-06       -0.01930893779     -3.459969694e-09       -0.01204602514     -2.218137787e-29      -0.009866099349     -1.132478453e-54 
                   1                    2          -2.56819209        0.08708110554       0.009397154541       0.002010145036      0.0002915440812      5.229098956e-11      1.691319598e-19      4.897970592e-88     4.506408563e-174        0.02141322231        0.01560133836        0.02127129645        0.01000635017        0.02038572973       0.001123519809        0.01712923404      1.338456355e-06        0.01466550096      2.260983998e-09       0.009288255985     -5.589211531e-31       0.007847751765     -4.633711004e-55 
                   1                    1          14.94979921     -0.0004999272866     -5.394848793e-05     -1.154011938e-05     -1.673736691e-06     -3.001993643e-13     -9.709762091e-22     -2.811894879e-90     -2.58710152e-176     -0.0001114570762     -0.0001060030466     -0.0001105120061     -8.128961309e-05     -0.0001045675094     -7.527870098e-06     -8.182801772e-05     -7.518952472e-09     -6.325626799e-05     -1.989163335e-11     -4.992597595e-06     -2.839401792e-31      3.226438494e-05     -1.913301917e-56 
                   0                   50          -5.61603023         0.2088985324        0.02350700501       0.005487881318      0.0008842217758      3.352646909e-10       2.50943275e-18      3.604540214e-84     6.774817322e-167        0.06020982546         0.0437200001        0.05978482473        0.02808886655        0.05714306758       0.003354560534        0.04759257709      4.497892298e-06        0.04055555224      6.988345083e-09        0.02589417042       3.37209017e-30        0.02233128958      1.694734039e-55 
                   1                    4          -1.24112011        0.09191767655        0.01034334353       0.002414728788      0.0003890674111      1.475201911e-10      1.104178307e-18      1.586037765e-84     2.980994936e-167        0.02651139791        0.01905838898        0.02632626667        0.01222969855        0.02517325868       0.001463450623        0.02097402249      1.884892954e-06        0.01786276917      4.291264515e-09        0.01097996867      1.292504906e-29       0.008764011887      3.563620681e-55 
                   1                    1          14.97034973      -0.001567546707     -0.0001763934283     -4.118032899e-05     -6.635082196e-06     -2.515781496e-12     -1.883044844e-20      -2.70479887e-86    -5.083732501e-169     -0.0004364419935      -0.000321824162     -0.0004330622903     -0.0002129423091     -0.0004120584421     -2.667232956e-05     -0.0003361501673     -3.589075638e-08     -0.0002800570237     -5.383852871e-11     -0.0001542360921     -2.568331056e-32     -0.0001109606675     -1.399100832e-57 
                   0                   42          -4.21706118         0.7091767466         0.1220831632        0.06014235769        0.02302895094      3.894688774e-06       3.74652031e-11      1.123147344e-52     4.151769392e-105         0.7255972397         0.5699112248         0.7131801364         0.4077930409          0.646173125        0.08823879059         0.4684184944       0.005186789749         0.3689040518       0.002989848107         0.1841519068       0.000411239117         0.1456539967      3.435255552e-05 
                   1                    1          -1.22791073         0.4123213341        0.07098017947        0.03496727337        0.01338922606       2.26440486e-06      2.178258467e-11      6.530073264e-53     2.413873696e-105         0.4215355285         0.2999812638         0.4145120725         0.2063434285         0.3773824303        0.04916224778         0.2816563639        0.00357389052         0.2274251683       0.001833456571         0.1485826947      0.0001297355651         0.1491832456      1.333640828e-06 
                   1                    1          14.92788558                   -0                   -0                   -0                   -0                   -0                   -0                   -0                   -0       0.002539553252       -0.07997604901       0.002580200967       -0.06367038471       0.002845075774     -0.0003328552637        0.00396598577      4.813245408e-06       0.004986118309      2.268023019e-06       0.009923011472     -3.442607873e-06        0.01705288112     -5.867428988e-07 
                   0                   43          -3.45962069         0.8218067192         0.2135232733         0.1743929459         0.1189538391       0.001369315361      2.246954054e-06        3.8934132e-30      2.221240943e-60          2.090634794          1.792666656          2.002813103          1.407760155          1.637462627         0.5208068146           1.03476698         0.1211209024         0.7743651213        0.06724327773         0.3762831245        0.01072332617         0.3428752628       0.006850927406 
                   1                    2          -0.09139209         0.3144706496        0.08170631963        0.06673279944        0.04551859967      0.0005239790343      8.598142173e-07      1.489844448e-30       8.49974898e-61         0.8041038419         0.7299462061         0.7717156739          0.585207602         0.6339641533         0.1942397349         0.4521467718        0.04263915651         0.3709365895        0.01091950017        0.02393096581      0.0009131436046        -0.3057968025      0.0006612648525 
                   1                    1          14.94979921      -0.005141602105       -0.00133590014      -0.001091082753     -0.0007442301154     -8.567068848e-06     -1.405798155e-08     -2.435898981e-32     -1.389710846e-62      -0.005475906055       -0.01158805483      -0.004747464772       -0.01375858181      -0.001776231782      -0.004300190479       0.006338158416      -0.001072086416        0.01242637497     -0.0009337277993        0.02754192182     -0.0002658933925        0.02856995339     -0.0002814998045 
                   0                   44          -2.12043751         0.4560120327        0.09712321553        0.06372621876         0.0338465809      6.163754315e-05      1.061084137e-08      2.906530844e-40      2.971506031e-80         0.7688276659         0.4518813029         0.7461858682          0.343017474         0.6439450669         0.1416755222         0.4049695076        0.02159639704         0.2890769514        0.01812028771          0.144452906         0.0144997329         0.1432493079         0.0107472648 
                   1                    3          -2.47552196         0.7850581311         0.1672047328         0.1097093555        0.05826936931      0.0001061135474      1.826734099e-08      5.003805841e-40      5.115665386e-80          1.318393496          1.186599283          1.279185374         0.9057592865          1.111458873          0.241771739         0.7034715323        0.03723019901          0.503268857        0.03193436274         0.2193198185         0.0314303536         0.1889188877        0.03144610146 
                   1                    1          14.96741947       -0.00833323709      -0.001774845232      -0.001164543152     -0.0006185178528     -1.126374358e-06     -1.939042186e-10     -5.311441124e-42     -5.430177823e-82       -0.01072611564        -0.0916005655       -0.01022395359       -0.07102805494      -0.009903779457       -0.00242186052      -0.005951684166     -0.0003961568049      -0.003900676664     -0.0004854342103       0.004030754114      -0.001645897794        0.01091747964      -0.002959937239 
                   0                   45          -1.35603003         0.3319774699         0.1224475214         0.1326008565         0.1249639599        0.01603526493       0.000509230512      1.617465466e-17      6.161396589e-35          1.598096028          1.744432352          1.481081532           1.47895243          1.013800345         0.6320726246         0.4571203748         0.2432901939         0.2601624272         0.1796765935        0.04078194477        0.02179185844       -0.01633189001       -0.09225119349 
                   1                    4          -1.24112011         0.5908829891         0.2179429752         0.2360147827         0.2224219559        0.02854098887      0.0009063736982      2.878908709e-17      1.096660094e-34          2.674800726          2.468826954          2.443138512          2.137345955          1.813877837          1.112468284         0.8313688807         0.4545503432         0.4666240432         0.3721832679        0.06783948232         0.3043849821        0.07076984726         0.3345997309 
                   1                    1          14.97034973       -0.01007680697      -0.003716758364      -0.004024951559      -0.003793142056     -0.0004867326374     -1.545712598e-05     -4.909636575e-19     -1.870223426e-36      -0.005597933243        0.08774489615       0.003035190433        0.06723813151       -0.02676805017       -0.01582290952       -0.02052490531       -0.01268280585       -0.02116243854       -0.01769460211       -0.01905257336       -0.05796076828       -0.02573980217        -0.1031435347 
                   0                   34           0.04293902                   -0                   -0                   -0                   -0                   -0                   -0                   -0                   -0        0.01887335175        -0.1040775408        0.03188213552        -0.1594813441        0.01209410619       -0.01152727759         0.2402274301       -0.08673009323          0.362345689        -0.1557632502         0.4252492429       -0.02107795543          0.463993225      -0.002820209154 
                   1                    1          -1.22791073         0.5572350607         0.2433932895         0.2899488464         0.3048959963        0.08916197783       0.007813167168      8.180428237e-13      7.761829956e-26          3.233445909          3.271797344          2.964184588          2.880497421          1.970091023          1.621949445         0.8642146985         0.6353619899         0.5247889023         0.4098031958        0.06607393709         0.1637359401        0.02414176553         0.1519484034 
                   1                    1          14.92788558                   -0                   -0                   -0                   -0                   -0                   -0                   -0                   -0        0.03256085991        0.01741635399        0.03437702923       0.005280182538        0.03748134338      -0.006677746567        0.04100241186      -0.005921597414        0.04327652154      -0.006430828764        0.02436749917      -0.001182064369        0.01682592481     -0.0001224278609 
                   0                   35           0.80037951        -0.1239842706       -0.09147923421        -0.1299122828         -0.167251617        -0.2255351469        -0.1303514804     -4.736823208e-05     -6.703418706e-10         -1.417235881         -1.143681082         -1.183846843          -1.24065511        -0.4794069046         -1.120731552       -0.05140049664        -0.4942092493        0.01486531472        -0.2967521504       0.009345341146        -0.1407489674       -0.02333148983        -0.1046118461 
                   1                    2          -0.09139209         0.2193885976         0.1618713471           0.22987814         0.2959496194         0.3990815879         0.2306552947      8.381748712e-05      1.186161455e-09          2.467140686          3.016392277          2.069228038          2.770179469         0.9065553825           1.93684082          0.131362058         0.8889380103         0.0394497675         0.5589013578        -0.0658425019         0.2127862488       -0.07796053399          0.208666141 
                   1                    1          14.94979921      -0.003587008443      -0.002646600119      -0.003758512694      -0.004838782849      -0.006524992824      -0.003771219191     -1.370417776e-06     -1.939376614e-11         0.3436935366          1.567476303         0.3227322013         0.9398952169        0.01999195579       -0.03593273492       -0.01852037501       -0.05876902932       -0.03201384895       -0.05553964928       -0.04002538559       -0.09677601952       -0.04553032229        -0.1792312647 
                   0                   36           2.13956269        -0.4458532758       -0.09606457935       -0.06392060604        -0.0344970882     -7.063433028e-05     -1.402829537e-08     -1.199332354e-39     -5.082521399e-79        -0.7761661741         -0.779218109        -0.7539376482        -0.5556874139        -0.6481319227        -0.1441520126        -0.4566704273       -0.01884835982        -0.3630696474      -0.003482145795        -0.1846264678      1.693622842e-08        -0.1539410676      2.632838162e-14 
                   1                    3          -2.47552196         0.7920071548         0.1706476957         0.1135476177        0.06128011646       0.000125473778      2.491965609e-08      2.130476227e-39      9.028515726e-79          1.380166658         0.9758388459          1.340866821         0.7399031077           1.15336307         0.2552872814         0.8133377823        0.03281130709         0.6484749649       0.006323959347         0.3174811053      4.675646331e-08         0.2651130621      2.421312443e-14 
                   1                    1          14.96741947      -0.008406999604      -0.001811391604      -0.001205285547     -0.0006504763394     -1.331879385e-06     -2.645172302e-10     -2.261458459e-41     -9.583591218e-81       -0.01256921718        -0.5666338247        -0.0122022361        -0.3411836479       -0.01062197511      -0.002221742979      -0.007742134054     -0.0005242499913      -0.005801215366     -0.0001705183596       0.002630876316     -3.534686093e-09       0.009521156112     -1.867866489e-15 
                   0                   37           2.90397017        -0.6677183864        -0.1707940077        -0.1373350799       -0.09202005728     -0.0009281110378     -1.295193048e-06     -6.169345718e-31     -7.010615114e-62         -1.655114189         -1.443519206         -1.589483894         -1.139987596         -1.302990709        -0.4011824101        -0.8649335328       -0.07758294803        -0.6784726125       -0.02762400391        -0.2058180627      -0.003638966824        0.07943137875      -0.001941692927 
                   1                    4          -1.24112011         0.5811279075         0.1486452467         0.1195253107        0.08008679171       0.000807752544      1.127230942e-06      5.369297956e-31      6.101470581e-62          1.438484696           1.22150684          1.381126201         0.9557711855          1.131173342         0.3507128178         0.6906060492        0.07107887842         0.5050867644        0.03821433608         0.2970475886       0.004146900922          0.372624807       0.002651112599 
                   1                    1          14.97034973      -0.009910445651      -0.002534967982       -0.00203836209       -0.00136578503     -1.377525943e-05     -1.922358373e-08     -9.156699393e-33     -1.040533277e-63        -0.0213722195       -0.01961314712       -0.02044913336        -0.0160146544       -0.01703813668      -0.005076969281       -0.01105791454      -0.001711830586      -0.007116104896      -0.001188841441       0.003393513555     -0.0001361024866       0.006306098177     -0.0001341134442 
                   0                   38           4.30293922        -0.7091767466        -0.1220831632       -0.06014235769       -0.02302895094     -3.894688774e-06      -3.74652031e-11     -1.123147344e-52    -4.151769392e-105        -0.7271162688        -0.5387470594         -0.714566294        -0.3796179236        -0.6470067514       -0.08899196004        -0.4724771534      -0.005308396811        -0.3761707063       -0.00258174341        -0.2132044988     -0.0001140327317        -0.1907349977     -2.205932332e-06 
                   1                    1          -1.22791073         0.4123213341        0.07098017947        0.03496727337        0.01338922606       2.26440486e-06      2.178258467e-11      6.530073264e-53     2.413873696e-105         0.4232008447         0.3660104937         0.4157969336         0.2688104207         0.3749557075         0.0534547635         0.2648279255       0.002438798609         0.2044255016        0.00141189053        0.08188266371      0.0001165585328        0.05021167549      4.359462189e-06 
                   1                    1          14.92788558                   -0                   -0                   -0                   -0                   -0                   -0                   -0                   -0        0.00251131959       -0.06024683708       0.002542515905       -0.05007867273       0.002754501948     -0.0002639072326       0.003743234567      9.498573505e-06       0.004788636245      3.434170043e-06        0.01085121178     -2.581962643e-06        0.01825680362     -1.580709444e-07 
                   0                   39           5.06037971        -0.7158202018        -0.1126372823       -0.04834316646       -0.01581118987     -8.644820841e-07     -2.137766574e-12     -1.345621398e-58    -7.176776462e-117        -0.5806305253        -0.4680570115        -0.5724242614        -0.3393634326        -0.5240357083       -0.06222136781        -0.3806243091     -0.0005296086193        -0.2969691843     -1.595926328e-05        -0.1128295225      -1.42132373e-13       -0.04306133161     -1.419908402e-23 
                   1                    2          -0.09139209          0.191213117        0.03008817825         0.0129136444       0.004223556265      2.309243487e-07      5.710498376e-13      3.594484496e-59     1.917092859e-117         0.1546931737         0.1244876487         0.1524619152        0.09044418703          0.139195035        0.01702540272        0.09838725295      0.0001555816499        0.07436623024      7.755857087e-06         0.0357074724     -5.750975659e-15        0.02229280685     -7.963915934e-24 
                   1                    1          14.94979921      -0.003126338709     -0.0004919423826     -0.0002111383728     -6.905523873e-05     -3.775618229e-09     -9.336677527e-15     -5.876990134e-61    -3.134451082e-119      -0.001528308527       -0.00162034241      -0.001477932833       -0.00150298826      -0.001180342565     -0.0003824965036     -0.0002759359403     -3.423591406e-06      0.0003079920056     -7.958386288e-08       0.001735978458     -6.207619433e-16       0.001502433754     -6.201437998e-26 
                   0                   16          -5.61603023         0.5406055425         0.0726956387        0.02390877371       0.005757850009      3.621361862e-08      6.866862753e-15       6.86854611e-70      3.85286504e-139         0.2789036815         0.2019493479         0.2764316897         0.1338144577         0.2614498299        0.01913840303         0.2110542929      0.0001154069374         0.1748880905      2.564138273e-06        0.08868560812       2.31065005e-18        0.07240279763      2.090097253e-33 
                   1                    4           1.23567989       0.001261901899      0.0001696889086      5.580876364e-05      1.344019121e-05      8.453119789e-11      1.602889069e-17      1.603282004e-72      8.99350326e-142      0.0006591093932      -0.002769703475        0.00065318507      -0.001573483944      0.0006172398928      4.590164338e-05      0.0005136266721      2.317417203e-07      0.0005210048058      1.657361222e-08       0.001697760841      -1.24675053e-19       0.001390015817     -7.303426982e-34 