ITEM: TIMESTEP
0
ITEM: NUMBER OF ATOMS
4
ITEM: BOX BOUNDS pp pp pp
0.0000000000000000e+00 4.2600002000000003e+00
0.0000000000000000e+00 2.4767999999999999e+00
0.0000000000000000e+00 3.0000000000000000e+01
ITEM: ATOMS id type c_1[1] c_1[2] c_1[3] c_1[4] c_1[5] c_1[6] c_1[7] c_1[8] c_1[9] c_1[10] c_1[11] c_1[12] c_1[13] c_1[14] c_1[15] c_1[16] c_1[17] c_1[18] c_1[19] c_1[20] 
1 1          13.96138511          12.60209661          6.119994853          1.209386946         0.5733464291         0.3718579737       0.000139787798      9.115392568e-09          49.40195742           45.9274631          41.28175586          23.50294381          21.43661332          4.296319858           15.2543683          2.609293746          5.054000171         0.9779034669          3.216241036         0.8043947047 
2 1          13.96400594          12.60490844          6.109526374          1.177649425         0.5480849669          0.351909054      0.0001285277259      8.821307575e-09          49.43030899           45.9119957          41.35446262          23.39405029          21.56711417          4.220944689          15.38795716          2.539619163           5.13014978         0.9321685689          3.280574938         0.7447823509 
3 1          13.96605243          12.60690102          6.109076983          1.173447712         0.5451337562         0.3498268507      0.0001352611219      1.158276809e-08          49.41157518          45.89940827          41.36169187          23.38549496          21.57934514          4.218574664           15.3951731          2.540041349           5.13512432         0.9523190012          3.285511885          0.798452784 
4 1          13.96161229            12.602384          6.118985432          1.206703828         0.5712335439         0.3701979647      0.0001465211947      1.187685308e-08          49.39930091          45.94556955          41.28587124          23.49960626           21.4433039          4.295510851          15.25397641          2.612481421          5.028872844         0.9800067239          3.192937144         0.7906046116 
