ITEM: TIMESTEP
0
ITEM: NUMBER OF ENTRIES
576
ITEM: BOX BOUNDS pp pp pp
0 4.26
0 2.4768
0 30
ITEM: ENTRIES c_2[1] c_2[2] c_2[3] c_2[4] c_2[5] c_2[6] c_2[7] c_2[8] c_2[9] c_2[10] c_2[11] c_2[12] c_2[13] c_2[14] c_2[15] c_2[16] c_2[17] c_2[18] c_2[19] c_2[20] c_2[21] c_2[22] c_2[23] 
                   0                   99           0.79338711       -0.02199545702      -0.002427314661     -8.355058403e-05     -2.249677236e-11     -2.417945589e-16     -1.146604974e-19     -9.358727458e-87    -5.139572197e-171      -0.005855638581       -0.00482657823      -0.005705850261      -0.001085086813      -0.004643061159     -5.534151534e-07      -0.003960540798     -3.192132851e-10      -0.002611862071      1.544599949e-28       -0.00247672587      9.810049024e-53 
                   1                    2          -4.96684528         0.1881004426        0.02075787567      0.0007145067193      1.923875842e-10      2.067775337e-15      9.805520427e-19      8.003383495e-86     4.395252184e-170         0.0502821664        0.04123839788        0.04904104021       0.009268800967        0.04004841901      3.588068635e-06        0.03423757762      8.544151246e-09        0.02118798527      2.013659514e-28        0.01732631779       6.26456865e-53 
                   1                    1          15.01396081      0.0003884279853      4.286507631e-05      1.475458546e-06      3.972809457e-13      4.269962352e-18      2.024842947e-21      1.652701123e-88     9.076209111e-173      0.0001151147461      9.468318226e-05      0.0001122898073      2.072864265e-05       9.20926925e-05      5.273582698e-09      7.970802441e-05     -3.541644505e-12      5.399614214e-05     -3.681343652e-30      4.582475099e-05     -2.298461895e-54 
                   0                   77          -3.46661309         0.5245296271         0.0842584743        0.01268349511      9.049149001e-07      4.924262201e-10      3.079397729e-12      2.431084425e-57     3.048303513e-114           0.44935401         0.3921615216         0.4252043983         0.1304216554         0.2860992817      0.0006130920904         0.2182235908      2.700378434e-05         0.0952492984      2.154847734e-14        0.05955770049     -6.946292152e-24 
                   1                    2          -2.49004528         0.5519886972        0.08866939645        0.01334747473      9.522870988e-07      5.182046803e-10      3.240603872e-12      2.558351435e-57     3.207881877e-114          0.473580148          0.415537993         0.4488709727         0.1367073751         0.3088585223      0.0006204191961         0.2399375723      2.455930737e-05        0.07351914579      2.474017273e-13        0.01173070553      2.044985501e-23 
                   1                    1          15.01396081       0.001898700473      0.0003050001311      4.591191218e-05       3.27562498e-09      1.782492063e-12      1.114685162e-14      8.800077078e-60      1.10342963e-116       0.002253240966       0.001689886237       0.002186215142      0.0001881864002       0.002069197497      4.013281993e-06       0.002277355453      1.451737744e-07       0.002681306479     -2.937735051e-15       0.001821301458     -3.976712828e-25 
                   0                   78          -2.14572687       0.001895527224       0.000191618446      4.331210422e-06      2.097604022e-13      6.846369805e-19      1.506280374e-22      1.047252635e-95     3.617856355e-187      0.0003603815351      0.0003001364982       0.000351977084      6.837049653e-05      0.0002890918232      1.502117023e-08      0.0002462130386      2.618367876e-11      0.0001288884358      3.010598509e-31      8.259275154e-05      4.399738999e-56 
                   1                    3          -4.87278039       0.005224183101      0.0005281115642      1.193706743e-05      5.781118489e-13      1.886899274e-18       4.15139618e-22      2.886289075e-95     9.971022197e-187      0.0009932789328      0.0008271656707      0.0009701041588      0.0001883920767       0.000796708028      4.130566729e-08      0.0006785243732      7.135499823e-11      0.0003562724911      7.732568523e-31      0.0002295008184      1.071339069e-55 
                   1                    1          15.07847674      -4.42702917e-05      -4.47527442e-06     -1.011559984e-07     -4.898982232e-15      -1.59897882e-20     -3.517937949e-24     -2.445872528e-97    -8.449551877e-189     -8.433094485e-06     -7.009603783e-06     -8.237315359e-06     -1.588140454e-06     -6.773859677e-06      -3.50379251e-10     -5.778221014e-06     -6.009074151e-13     -3.073759847e-06     -6.046618555e-33      -2.01709765e-06     -7.841157607e-58 
                   0                   79          -1.33895284          0.201792125        0.03183092565       0.004505775426      2.543349076e-07      1.168775244e-10      6.534404621e-13      5.566685293e-59      4.33188049e-117         0.1654073383         0.1448264536         0.1570485049        0.04646208058         0.1107512785       0.000151084337        0.08880100342      6.535719123e-07        0.02608485543      3.343927301e-14     -0.0002298382255      7.647686468e-24 
                   1                    4          -3.76101615         0.7155223055         0.1128673248        0.01597675242       9.01830532e-07      4.144288372e-10      2.316994412e-12      1.973856758e-58     1.536014904e-116         0.5847901167         0.5104500757         0.5543139007         0.1672013371         0.3780719795      0.0005364434589          0.294001494      1.266181433e-05         0.1199918103      8.999333235e-14        0.05381520764       7.82632829e-24 
                   1                    1          15.00201314        0.00354722581      0.0005595435453      7.920528558e-05      4.470855087e-09       2.05454485e-12      1.148657745e-14      9.785461028e-61     7.614845368e-119       0.003716166021       0.003118552034       0.003578706865      0.0007953986077       0.002814736726      3.505735633e-06       0.002453164943      1.060310939e-07       0.001689993863      3.056197125e-16      0.0009362255885     -5.606363428e-26 
                   0                   68           0.06871903                   -0                   -0                   -0                   -0                   -0                   -0                   -0                   -0     -0.0002277306351      -0.005144229147       0.000608396643      -0.007140308668        0.00924237973      0.0005096174704        0.01233213678      9.985141267e-05        0.03121428931     -2.766657267e-05        0.04149059954       -1.9177616e-06 
                   1                    1           -3.7232389         0.8137120297         0.1388539779        0.02547174737      3.870552671e-06      3.640260861e-09      3.272168883e-11      3.518983774e-53     3.615938187e-106         0.8190954579         0.6003714369         0.7704666633         0.2291770325         0.5287161391       0.004915716744         0.4194789062        0.00229752988         0.2199233339      0.0001295903764         0.1850970056      3.643532412e-06 
                   1                    1          15.02675806                   -0                   -0                   -0                   -0                   -0                   -0                   -0                   -0      0.0002618034829      0.0003692898517      0.0002431633015      0.0002749508522      -0.000129063065     -1.508967683e-06     -0.0004638354005     -1.124157097e-06     -0.0009195957278      4.885768489e-07     -0.0009529793715      3.386664228e-08 
                   0                   69           0.79338711         -0.169185661       -0.04331874954       -0.02338938371     -0.0002379154737     -4.840479583e-06     -3.354861243e-07     -1.736148386e-31      -2.18823795e-62        -0.4197214189        -0.3690357056        -0.3641139055        -0.1796733132        -0.1605951087       -0.02198797563       -0.09657204566       -0.01905493608        -0.1306401287      -0.001951646708        -0.3150655458      -0.001550316349 
                   1                    2          -2.49004528         0.8685899516         0.2223960964         0.1200798197        0.00122144506      2.485075805e-05      1.722367456e-06      8.913291077e-31      1.123429423e-61          2.178428981          1.984828724          1.900582897         0.8970194629          1.106820663         0.1026231605         0.8499629782        0.04296118091         0.3257476283       0.005779131565         0.1119334535        0.00347848314 
                   1                    1          15.01396081        0.00298772812      0.0007649859057      0.0004130439838      4.201459786e-06      8.548027581e-08      5.924505195e-09      3.065945023e-33      3.864310969e-64        0.01133597449       0.009235988134        0.01048014583        0.00261947958       0.008273239465      0.0005927605884       0.006945197954      0.0003448188875       0.008031909467      3.443879482e-05       0.008635555193       2.73777493e-05 
                   0                   70           2.11427333       -0.01504348715      -0.001550490393     -3.858420429e-05     -2.826560009e-12     -1.243244385e-17     -3.321533644e-21     -7.482652361e-93    -1.321478542e-182      -0.003117536051      -0.002588823613      -0.003049559928     -0.0005702871537      -0.002534163555     -9.510856828e-08      -0.002178448108     -2.103634843e-10      -0.001190388736     -3.390000923e-29     -0.0007509430486     -9.075860949e-53 
                   1                    3          -4.87278039        0.04488393711       0.004626062601      0.0001151203163      8.433359929e-12      3.709359555e-17      9.910169481e-21      2.232533552e-92     3.942779968e-182       0.009301777886       0.007731618142       0.009098822059       0.001706704635        0.00756000627      3.051161825e-07       0.006493861423      6.402145173e-10       0.003521346031      5.513744003e-29       0.002223615862      8.688814676e-53 
                   1                    1          15.07847674     -0.0003803513296       -3.9201754e-05     -9.755419911e-07     -7.146520267e-14      -3.14335134e-19     -8.397984627e-23     -1.891873039e-94    -3.341154319e-184     -8.001764317e-05     -6.588385668e-05     -7.834212121e-05     -1.398388723e-05     -6.572077249e-05     -2.623502336e-09      -5.70876021e-05     -5.445631587e-12     -3.360729406e-05     -3.302209579e-31     -2.344540262e-05     -1.884978301e-55 
                   0                   71           2.92104736        -0.2447600802       -0.03192835107      -0.002244564093     -9.020158186e-09     -6.292641059e-13     -1.012183092e-15     -1.659479988e-72    -5.542539886e-144         -0.114940591        -0.0978834472        -0.1114966058       -0.02360388279       -0.08794929967     -2.649184825e-05       -0.07333119658     -5.514445025e-07        -0.0384899029     -3.706560826e-18        -0.0313589452     -6.548451167e-32 
                   1                    4          -3.76101615         0.4283132076        0.05587240554       0.003927831882       1.57846528e-08      1.101168652e-12      1.771250387e-15      2.903975174e-72     9.699061362e-144         0.2011147822         0.1589197932           0.19507693        0.04064934387         0.1536849914      4.605903575e-05         0.1278905055      9.900409745e-07        0.06691482075      6.043985329e-18        0.05499796761      5.534529219e-32 
                   1                    1          15.00201314       0.002123377081       0.000276989323      1.947235819e-05      7.825294527e-11      5.459080498e-15      8.781033156e-18      1.439655425e-74     4.808342176e-146       0.001202728143     -0.0002185949954       0.001183120288     -0.0002288381838        0.00106573893      4.265664934e-07      0.0009976122099      1.068123519e-08      0.0009466165871      8.959363087e-21       0.001368602723     -7.120941469e-34 
                   0                   73           5.05338731        -0.1625166441       -0.01805487728     -0.0006407820416     -1.942384373e-10     -2.263163761e-15     -1.130629313e-18     -2.476274779e-85     -4.58009318e-169       -0.04438852819       -0.03655769879       -0.04327361452      -0.008365668695       -0.03515935214     -3.219405183e-06       -0.02988342291     -9.106222842e-09       -0.01787668201     -5.271104103e-28       -0.01415965212     -3.988171469e-52 
                   1                    2          -2.49004528         0.1212975319          0.013475617      0.0004782604302      1.449737236e-10      1.689157316e-15      8.438676909e-19      1.848216967e-85     3.418443702e-169        0.03308459882        0.02728406345        0.03224782346       0.006237440145        0.02619612172       2.59244016e-06        0.02227115498      5.616161803e-09        0.01355721927     -8.111284604e-29        0.01117064531     -2.154342318e-52 
                   1                    1          15.01396081      0.0004172326034      4.635268895e-05      1.645094021e-06      4.986726703e-13      5.810270776e-18      2.902689842e-21      6.357395445e-88     1.175857533e-171      0.0001296378415      9.391401055e-05      0.0001274675212      9.585823292e-06      0.0001147891505      8.986741798e-09      0.0001109738985     -3.494569999e-12      0.0001375103845     -8.115529944e-30      0.0001679727376     -9.218230915e-54 
                   0                   50          -5.59895304         0.1975717216        0.02209698819      0.0008085284255      2.756753292e-10      3.480204751e-15      1.831167026e-18       1.07472024e-84     6.696013304e-168         0.0558947998        0.04541864153        0.05448811533        0.01013779384        0.04444793008      4.216253977e-06        0.03810552703      6.278526382e-09        0.02458356173      2.285483555e-30        0.02136247827     -3.560923413e-57 
                   1                    4          -1.28421615        0.08765668696       0.009803775361      0.0003587199752      1.223089308e-10      1.544063168e-15      8.124342567e-19       4.76821353e-85      2.97082162e-168        0.02483784857        0.02026745882        0.02421863902       0.004509459319        0.01978454536      1.768508752e-06        0.01699936502      3.719853389e-09        0.01098663236      8.587928801e-30       0.009211174291      7.003385572e-56 
                   1                    1          15.00201314      0.0008625933868       9.64749192e-05      3.530015668e-06       1.20359186e-12      1.519449027e-17      7.994831214e-21      4.692202728e-87     2.923463311e-170      0.0002727154372      0.0001167286823      0.0002675736383     -5.171107587e-07      0.0002340818554      1.450152154e-08      0.0002193170116      2.284842981e-11      0.0002795981336      9.978333318e-33      0.0004055984938     -1.554690601e-59 
                   0                   42          -4.19128117         0.7091767466         0.1220831632        0.02302895094      3.894688774e-06      3.958702083e-09       3.74652031e-11      1.123147344e-52     4.151769392e-105         0.7275336716          0.637216453         0.6840573745         0.2129382657         0.4677932436       0.004671415012         0.3681498853       0.002289454077         0.1652543724      0.0001783416923          0.113118381      7.460857821e-06 
                   1                    1           -1.2464389         0.4123213341        0.07098017947        0.01338922606       2.26440486e-06      2.301622737e-09      2.178258467e-11      6.530073264e-53     2.413873696e-105         0.4231159125         0.3385231449         0.3987407208         0.1061334889         0.2838481852       0.003282237067         0.2329436125       0.001441065876         0.1617701535      5.673328107e-05         0.1676044393      2.334733867e-07 
                   1                    1          15.02675806                   -0                   -0                   -0                   -0                   -0                   -0                   -0                   -0      0.0003824917909      -0.009224749543      0.0004170650871      -0.003294422431      0.0007750430538     -1.604095136e-06       0.001390556672     -1.034984172e-06       0.008682837967      7.401584678e-07        0.01723659969      6.469564919e-08 
                   0                   43          -3.46661309         0.8297521584         0.2157930351         0.1204609158       0.001397762363      3.133192953e-05       2.31615613e-06      4.338443823e-30       2.72815521e-60          2.137430318          1.932814519          1.850711368          0.890196426          1.052711073         0.1161749572         0.8041691349        0.05653991928         0.3999944484       0.007222777262         0.3430590945       0.003636204476 
                   1                    2          -0.01324528          0.291877833        0.07590845387        0.04237394346       0.000491683987      1.102147864e-05      8.147428426e-07      1.526113031e-30       9.59669731e-61         0.7545988841         0.7109542415         0.6550211999          0.312434522          0.425772483        0.03903632976          0.363254374       0.008577699753         0.1104502936      0.0007845864236         -0.224625394     -0.0001954848853 
                   1                    1          15.01396081       0.003003549723      0.0007811309727      0.0004360462898      5.059641864e-06      1.134158041e-07      8.384057858e-09      1.570436619e-32       9.87541851e-63        0.01191441715       0.002218426087        0.01116430865      -0.003072427932        0.01153038249      0.0007191330131        0.01324280652      0.0004360624188        0.04119361391     -5.208996648e-05        0.07033102527      -9.41699708e-05 
                   0                   44          -2.14572687         0.4739281122         0.1030053664         0.0378244299       8.45101184e-05       5.64754213e-07      1.866990547e-08      3.726490474e-39      4.554742706e-78         0.8302270636         0.6928205829         0.7572262738         0.2999903593          0.427263494        0.02346629273         0.3006571268        0.01988741904         0.1684105697        0.02007674634         0.1879677508        0.02091955979 
                   1                    3          -2.39598039         0.7760971612         0.1686799545         0.0619406866      0.0001383924298      9.248325436e-07      3.057354115e-08      6.102441706e-39      7.458774428e-78          1.376180828          1.262761147          1.242222585         0.5240127922         0.7096771816        0.03914460763           0.49740636        0.03243447597         0.1995575576        0.03102680083         0.1539683033        0.03034460233 
                   1                    1          15.07847674       -0.01106865441        -0.0024057041     -0.0008833946163     -1.973745112e-06     -1.318991014e-08      -4.36038138e-10     -8.703268313e-41     -1.063766247e-79       -0.02279942209        0.01698758784       -0.02303865816       0.005277936367       -0.01891267132     -0.0005685797093       -0.01790636956     -0.0004846910361       -0.03335148833     -0.0006333101574        -0.0567820498     -0.0008359894008 
                   0                   45          -1.33895284         0.3348093309         0.1221658837          0.122839316        0.01485169586       0.001876338344      0.0004383080148      7.756499476e-18      1.422520032e-35          1.658290527          1.606432494          1.228653937         0.9296496154         0.4626113436         0.2375738827         0.2730048769         0.1884902918        0.03075824704         0.1038610972       -0.08498612904        0.06967265171 
                   1                    4          -1.28421615          0.598082511         0.2182295167         0.2194324942        0.02653014337       0.003351773815      0.0007829661059      1.385572699e-17      2.541101082e-35          2.698023169          2.667927403          2.131574105          1.615204709         0.8291440398         0.4322769955         0.4492229005         0.3493958124        0.07564980955         0.2622092972         0.1138381427         0.2679790014 
                   1                    1          15.00201314       0.005885483887       0.002147506875       0.002159344882      0.0002610722241       3.29834269e-05      7.704847268e-06      1.363485079e-19      2.500593011e-37       -0.06479819835       -0.02056357394        0.01449600319      -0.005189901649        0.03338486161        0.00594501085        0.03742540537       0.008263478346        0.04707664149        0.03107194281        0.07832581385        0.06051383863 
                   0                   34           0.06871903                   -0                   -0                   -0                   -0                   -0                   -0                   -0                   -0        0.01795647694       -0.08023792346        0.03772721994        -0.1343022156         0.2797063053       -0.07892631147         0.4013359932        -0.1543572143         0.4554379402       -0.04578462771         0.5240064315      -0.003924975349 
                   1                    1           -1.2464389         0.5572350607         0.2433932895         0.3048959963        0.08916197783        0.02165100651       0.007813167168      8.180428237e-13      7.761829956e-26          3.314037419          3.387850412           2.48086556          2.204721839         0.8765765051         0.6451368263         0.5325971901          0.431028519        0.07131583487         0.1671376126        0.02908727125         0.1511427972 
                   1                    1          15.02675806                   -0                   -0                   -0                   -0                   -0                   -0                   -0                   -0       0.003651812558       0.005796981152       0.002681352543       0.005167636569      -0.003359471045       0.001076853066       -0.01123430498       0.002407980693       -0.01257288304       0.001136502147       -0.01103145321      9.067075071e-05 
                   0                   35           0.79338711        -0.1122399433       -0.08892473319        -0.1675078179        -0.2549718904         -0.210196969        -0.1711554302     -0.0002054730336     -1.294698155e-08         -1.313250604         -1.333618033        -0.7256454734         -1.311871774        0.01541237914        -0.5563768649        0.06118511784        -0.3690252098        0.02423003734        -0.1376624259       -0.02566650941        -0.1501822438 
                   1                    2          -0.01324528         0.1926155069         0.1526041626         0.2874609725         0.4375584883         0.3607200303         0.2937206575      0.0003526132619      2.221837735e-08          2.533074755          2.810153401          1.332785081          2.287227055        0.08718197079         0.8969537776       0.007090252875         0.5550351526       -0.07744120848         0.2371215502       -0.09253958783         0.2041890122 
                   1                    1          15.01396081       0.001982097258        0.00157036314       0.002958098309       0.004502666965       0.003711965845       0.003022513188      3.628543676e-06      2.286367569e-10        -0.3829126963        -0.3419729436       -0.03507709206       -0.07292114515        0.07928836467         0.0270010128         0.1064117103        0.02321129318         0.1247129378        0.06432088158         0.1873510999          0.130156294 
                   0                   36           2.11427333        -0.4468953239        -0.1000919674       -0.03964284805     -0.0001191063094     -9.890448851e-07     -3.777508092e-08     -1.342685302e-37     -5.991928749e-75        -0.8534068202        -0.8144781384        -0.7676052822        -0.3118164403        -0.4900972273       -0.02290826991        -0.3895162656      -0.005013919075        -0.1873159329     -2.249108045e-05        -0.1314713255     -9.604468832e-07 
                   1                    3          -2.39598039         0.7922522783         0.1774421996        0.07027850822      0.0002111506654      1.753370469e-06      6.696734632e-08      2.380301232e-37      1.062244098e-74          1.513762991          1.276939958          1.361865922         0.5224757881         0.8734251129        0.04136159051         0.6923384334       0.008746593238          0.344898571      4.951441298e-05         0.2999985736      1.668659649e-06 
                   1                    1          15.07847674       -0.01129905779       -0.00253067075      -0.001002308163     -3.011419009e-06      -2.50064718e-08     -9.550845567e-10     -3.394772336e-39     -1.514966606e-76       -0.02699593644         0.1085556631       -0.02545642345        0.01903067127       -0.02326872606     -0.0005505933989       -0.02495531534     -9.063983855e-05       -0.04598686001     -5.652412198e-07       -0.07205775126     -2.428341085e-08 
                   0                   37           2.92104736        -0.6648604267        -0.1694756837       -0.09063011582     -0.0008875052099     -1.755862549e-05     -1.194532725e-06     -4.264806509e-31      -3.38047822e-62         -1.657018543          -1.51250489         -1.449435116        -0.6728882571        -0.8755649059       -0.07396951131          -0.68574657       -0.02334888404        -0.2168479128       -0.00215046579        0.04174132988      -0.001357348453 
                   1                    4          -1.28421615         0.5861326993         0.1494076591        0.07989838512      0.0007824135765      1.547946628e-05      1.053085223e-06       3.75980048e-31      2.980187637e-62          1.458249645          1.318326733          1.273626669         0.6002856427         0.7114336929        0.06793433131         0.5294525208        0.03364115901         0.2697497937       0.002223076305         0.2819794724       0.001433599843 
                   1                    1          15.00201314       0.005767890707       0.001470259294      0.0007862471308      7.699410053e-06      1.523270581e-07      1.036297834e-08      3.699864941e-33      2.932680023e-64        0.02052341419        0.01276315065        0.01940243214     -0.0005611733276        0.02042096383      0.0009586049113        0.02451284535      0.0006413613773        0.04723296366      2.509084234e-05        0.04917963965     -5.144497926e-07 
                   0                   38           4.32871923        -0.7091767466        -0.1220831632       -0.02302895094     -3.894688774e-06     -3.958702083e-09      -3.74652031e-11     -1.123147344e-52    -4.151769392e-105        -0.7308157271        -0.6307468469        -0.6872965531        -0.2053969409        -0.4768702013      -0.005439400156        -0.3806398464      -0.002492920721        -0.2069963197     -8.980947455e-05        -0.1765712969     -1.349668136e-06 
                   1                    1           -1.2464389         0.4123213341        0.07098017947        0.01338922606       2.26440486e-06      2.301622737e-09      2.178258467e-11      6.530073264e-53     2.413873696e-105         0.4249656286          0.343796927          0.398811031         0.1216101894         0.2673627637       0.002501935531         0.2092280293       0.001353632484         0.0920959737      9.374144076e-05         0.0695243814       2.79148004e-06 
                   1                    1          15.02675806                   -0                   -0                   -0                   -0                   -0                   -0                   -0                   -0      0.0004128952632         -0.036659739      0.0004743984213      -0.007258843415      0.0009594764693     -7.129201636e-06       0.001623215801     -1.836585508e-06       0.009022358295        1.2001082e-06        0.01869161948      5.799678844e-08 
                   0                   39           5.05338731        -0.7371690798        -0.1182080173       -0.01768917488      -1.23395285e-06     -6.606505455e-10     -4.087114157e-12     -2.604498626e-57    -2.499417948e-114        -0.6299612177        -0.5498317391        -0.5967459743        -0.1799561883        -0.4086502773     -0.0007218887563        -0.3203316305     -2.400259765e-05        -0.1309102263     -1.322350617e-13       -0.05457148738     -7.191885417e-24 
                   1                    2          -0.01324528         0.1839135765         0.0294912793       0.004413206556      3.078543146e-07      1.648232515e-10      1.019678935e-12      6.497866911e-58     6.235705029e-115         0.1566311101         0.1358892531         0.1479972987        0.04552231342        0.09730317549      0.0001966695205        0.07351261906      9.338332712e-06        0.04349347842     -3.866421817e-14        0.03521901153     -6.586871777e-24 
                   1                    1          15.01396081       0.001892550613       0.000303478078      4.541381301e-05      3.167954661e-09      1.696102874e-12      1.049293929e-14      6.686587385e-60     6.416811418e-117        0.00230033298       0.001754054393       0.002260432527      0.0001885300213       0.002135925246      2.462063968e-06       0.002180337208      7.106645453e-08       0.002593904967      3.394900218e-16       0.001762097562      1.846388776e-26 
                   0                   16          -5.59895304         0.5361371242        0.07188284697       0.005628767331      3.391345271e-08       3.14872378e-12      6.114429705e-15       4.11707209e-70     1.410085226e-139         0.2748812678         0.2230489149         0.2661716399        0.05727555104         0.2085600962      0.0001094976235         0.1734218781      2.430171015e-06        0.08798614641      2.260848918e-18        0.07125804687      2.308283689e-33 