ITEM: TIMESTEP
0
ITEM: NUMBER OF ATOMS
4
ITEM: BOX BOUNDS pp pp pp
0.0000000000000000e+00 4.2600002000000003e+00
0.0000000000000000e+00 2.4767999999999999e+00
0.0000000000000000e+00 3.0000000000000000e+01
ITEM: ATOMS id type c_1[1] c_1[2] c_1[3] c_1[4] c_1[5] c_1[6] c_1[7] c_1[8] c_1[9] c_1[10] c_1[11] c_1[12] c_1[13] c_1[14] 
1 1          13.96121562           12.6018368          6.110571101         0.3564690346      0.0001282390698      8.983008147e-09          48.62663485          43.35051745          36.18476971           14.6449527          15.21980191          2.573571423          3.135782577          0.805967301 
2 1          13.96525928          12.60634557          6.096072024         0.3237473329      7.070091401e-05      2.387579398e-09          48.65963269          43.33519625            36.307646          14.50731714          15.39749916          2.503408505          3.182738398          0.724065658 
3 1          13.96128444          12.60201859          6.116012729          0.361470932      0.0001114448068      5.159157772e-09          48.62305266          43.34616486          36.15878737          14.68543074          15.37010804          2.546688884          3.345638368         0.7993994453 
4 1           13.9566866          12.59717244          6.127440422         0.3933300268      0.0001689829615      1.175458652e-08          48.57125975          43.40324159          36.04639491          14.80423445          15.20590059          2.616626418          3.264425867          0.889245026 
