ITEM: TIMESTEP
0
ITEM: NUMBER OF ENTRIES
594
ITEM: BOX BOUNDS pp pp pp
0 4.26
0 2.4768
0 30
ITEM: ENTRIES c_2[1] c_2[2] c_2[3] c_2[4] c_2[5] c_2[6] c_2[7] c_2[8] c_2[9] c_2[10] c_2[11] c_2[12] c_2[13] c_2[14] c_2[15] c_2[16] c_2[17] 
                   0                  102           4.89191752       -0.01722935161      -0.001863843759      -5.84954596e-05     -3.736401222e-20     -1.566239162e-88    -2.262742633e-174      -0.004276488906       -0.00313856528      -0.004068122928     -0.0002279331607      -0.002923428259     -1.774558118e-10      -0.001746274118      1.775095554e-55 
                   1                    2          -4.97113914         0.1478499948        0.01599417648      0.0005019662723      3.206312774e-19       1.34403463e-87     1.941724182e-173        0.03672586744        0.02684917794        0.03494388672       0.001948627181        0.02504923893      4.125217078e-09        0.01266466563      1.273163161e-55 
                   1                    1           15.0622142       -0.00296348793     -0.0003205853946       -1.0061353e-05     -6.426695662e-21     -2.693967224e-89    -3.891969143e-175     -0.0007147327736     -0.0005234828948     -0.0006793806255     -3.866495542e-05     -0.0004868662789     -1.059321826e-10     -0.0003010375378      -1.25332285e-56 
                   0                   68           4.16315792                   -0                   -0                   -0                   -0                   -0                   -0      -0.001310624167      -0.006802290725     -0.0001422144777      -0.001197363075       0.007938122858       8.16955308e-05        0.03834410981     -1.318882013e-06 
                   1                    1          -3.67104454         0.8137120297         0.1388539779        0.02547174737      3.272168883e-11      3.518983774e-53     3.615938187e-106         0.8135215833         0.5574438712         0.7243982775        0.09896748879         0.4191228473       0.002669134626         0.1835615768      1.993153949e-06 
                   1                    1          14.93686588                   -0                   -0                   -0                   -0                   -0                   -0       0.007797444071       0.004201309354       0.008224790652      -0.000466819121         0.0102656113      8.124846339e-06       0.008278361048     -2.268507263e-07 
                   0                   69           0.63191732         0.5108679532        0.08096841276        0.01164785786      1.933623741e-12      2.952721383e-58     4.761283133e-116         0.4226379915         0.3388177225         0.3809017259        0.04589779705         0.2136519135      1.729140699e-05        0.05780074492     -1.280126793e-24 
                   1                    2          -2.49433914         0.5464069522        0.08660105486        0.01245815181      2.068138055e-12      3.158130162e-58     5.092506173e-116         0.4520002729         0.3654249551         0.4078318891        0.04858546204         0.2334489419      1.319123302e-05        0.01892006003      8.359078098e-24 
                   1                    1           15.0622142       -0.01813426128      -0.002874132822     -0.0004134635897     -6.863777208e-14     -1.048126443e-59    -1.690110954e-117        -0.0130150221       -0.01118626122       -0.01147815344      -0.001690540778      -0.004823992699     -4.294748965e-07        0.00209145782     -5.561902659e-25 
                   0                   70           2.07239794       0.001485560557      0.0001501098052      3.385592745e-06      1.152385747e-22      7.321608391e-96     2.279554591e-187      0.0002840069547      0.0002113915172      0.0002714672247      1.370094065e-05       0.000196913221      2.773320276e-11      6.417005946e-05      2.304858455e-52 
                   1                    3          -4.86398852       0.004367341725      0.0004413019803      9.953172486e-06      3.387854056e-22      2.152451186e-95     6.701573916e-187      0.0008349681187      0.0006215003731       0.000798090116      4.029297019e-05      0.0005788653052      8.100928351e-11      0.0001898973542      5.677635889e-52 
                   1                    1          15.07712667     -9.966036241e-05     -1.007027113e-05     -2.271259818e-07     -7.730898662e-24     -4.911776516e-97    -1.529262712e-188     -1.904035546e-05      -1.41701015e-05     -1.819950207e-05     -9.187227183e-07     -1.320245327e-05     -1.856758713e-12     -4.309926768e-06      -1.53218523e-53 
                   0                   71           2.76788399         0.2091189144        0.03377884912       0.005180024914      1.469703643e-12      2.276137656e-57     6.619335585e-114         0.1817312429         0.1476877042         0.1638914714        0.01967599184         0.0969705182      0.0001316594553      -0.004522842981      1.450476406e-05 
                   1                    4          -3.63855662         0.7375595527         0.1191375392        0.01826987707       5.18362466e-12      8.027906403e-57     2.334630613e-113         0.6410594185         0.5166694362         0.5762567558         0.0713998436         0.3246028143      0.0004043654861        0.06164374101      5.104125006e-05 
                   1                    1          15.02517803       -0.01323592489      -0.002137990775     -0.0003278633159     -9.302308728e-14     -1.440653379e-58    -4.189627173e-115      -0.008349263451      -0.007037645242      -0.007158670621      -0.001313585816      -0.003519600796      7.127568085e-07      0.0004973663956     -9.036831722e-07 
                   0                   73           4.89191752        -0.1687933059       -0.04231177321       -0.02181461273     -2.085287976e-07     -1.818265355e-32      -2.47628539e-64        -0.4012313155        -0.3266425293        -0.3175001999       -0.09567827819        -0.1137451697       -0.01594411775        -0.2892293633     -0.0009338786267 
                   1                    2          -2.49433914             0.874794          0.219286453         0.1130571632      1.080728528e-06      9.423404648e-32      1.283368194e-63          2.080602959          1.793546431          1.646228059         0.4946841359         0.8220786337        0.03732910099         0.1129716828        0.00253869382 
                   1                    1           15.0622142       -0.02903283513      -0.007277721882      -0.003752163343     -3.586743071e-08     -3.127458048e-33     -4.259267576e-65       -0.05553672452       -0.04282226168       -0.04346341511       -0.01409980983       -0.02245684386       -0.00309037175       -0.05492064238     -0.0001606296587 
                   0                   75           7.02788419        -0.2626419763       -0.03489332631      -0.002636547604     -2.140397149e-15     -4.200215741e-71    -3.093736552e-141        -0.1295302607        -0.0978770856        -0.1213572085      -0.008961504849       -0.08073259474     -3.417329549e-06       -0.03322793437     -2.514418242e-18 
                   1                    4          -3.63855662         0.4511742067        0.05994079484       0.004529139973       3.67683795e-15      7.215255656e-71      5.31451276e-141         0.2224983666          0.163986552         0.2084595268        0.01539472796          0.138647083      8.027997927e-06         0.0556865169      4.181855485e-18 
                   1                    1          15.02517803      -0.008096577272      -0.001075671592     -8.127798802e-05     -6.598294436e-17     -1.294818589e-72    -9.537194854e-143      -0.003200200601        -0.0118113089      -0.002877581648     -0.0003526646562     -0.0008602724916     -1.420944446e-09        0.00673964473     -8.333742596e-20 
                   0                   80           9.15191772        -0.1404206371       -0.01539502324     -0.0005141676886     -5.503158204e-19     -1.701177287e-86    -2.835495139e-171       -0.03666509776        -0.0267486681         -0.034868015      -0.001965055571       -0.02489190727      -4.98552092e-09       -0.01184509659     -2.130526876e-54 
                   1                    2          -2.49433914         0.1063097778        0.01165527756        0.00038926652      4.166335791e-19      1.287928778e-86     2.146699121e-171        0.02776511055        0.02038975575        0.02639837801       0.001494656613          0.018853405      3.132599208e-09       0.009554037308     -1.071458902e-54 
                   1                    1           15.0622142      -0.003528229792     -0.0003868176413     -1.291905374e-05     -1.382731707e-20      -4.27440333e-88    -7.124507218e-173     -0.0008852227234     -0.0006821304388     -0.0008365036608     -5.325601494e-05      -0.000557810578     -1.479280787e-10     -0.0001592365729     -1.314883693e-55 
                   0                   42          -0.09684228         0.7091767466         0.1220831632        0.02302895094       3.74652031e-11      1.123147344e-52     4.151769392e-105         0.7255121981         0.5772202688         0.6450276169        0.08933398214         0.3638122384       0.002663025641         0.1315111504      1.283100696e-05 
                   1                    1          -1.19424454         0.4123213341        0.07098017947        0.01338922606      2.178258467e-11      6.530073264e-53     2.413873696e-105         0.4201663069         0.3213749899         0.3750739351        0.05016564245          0.222131544       0.001649806904         0.1398844546      1.416970684e-07 
                   1                    1          14.93686588                   -0                   -0                   -0                   -0                   -0                   -0       0.008484458535       -0.02371942333       0.009282029992     -0.0008671893957         0.0159508757      1.156273894e-05        0.06092358784     -1.218254782e-06 
                   0                   45          -1.49211621         0.2225687734        0.02522785891      0.0009804456042      3.630246909e-18      1.505035613e-83     1.047454162e-165         0.0651265496        0.04768752302        0.06171821826       0.003728754988        0.04340813053      3.077475525e-08        0.02302102586      1.007416477e-31 
                   1                    4          -1.16175662        0.09619826185        0.01090393832      0.0004237663779      1.569058576e-18      6.505036973e-84     4.527286924e-166        0.02814963166        0.02045047322        0.02669002321       0.001596522711        0.01877966149      9.615156528e-09       0.008878504893      2.952578653e-32 
                   1                    1          15.02517803      -0.003475609927       -0.00039395552     -1.531053266e-05     -5.668954364e-20     -2.350247358e-85    -1.635693106e-167     -0.0009020267598     -0.0009141884509     -0.0008398456477     -6.799975982e-05     -0.0004856823061     -5.511291075e-11      0.0003868055486     -3.865610111e-34 
                   0                   34           4.16315792                   -0                   -0                   -0                   -0                   -0                   -0       0.009758517806        -0.1051184953      -0.006492889535     -0.0006284932183         0.3174087915         -0.149011342         0.4800286176      -0.002867270324 
                   1                    1          -1.19424454         0.5572350607         0.2433932895         0.3048959963       0.007813167168      8.180428237e-13      7.761829956e-26          3.229236603          3.266407875          1.972214439          1.616187472         0.5324417667         0.4187030468        0.02650198492         0.1517044704 
                   1                    1          14.93686588                   -0                   -0                   -0                   -0                   -0                   -0          0.112695279        0.04953998314         0.1304775549       -0.02551019666         0.1816867927       -0.03338216482        0.09663750958     -0.0006746623443 
                   0                   35           0.63191732         0.8270582091          0.213729444         0.1177091322      2.009722988e-06      2.234604885e-30      7.323617134e-61           2.08940579          1.791323214          1.642139759         0.5112603587         0.7719474271        0.05427028696         0.3255812735       0.003098488171 
                   1                    2          -0.01753914         0.3044974935         0.0786886331        0.04333689613      7.399184309e-07      8.227130557e-31       2.69633145e-61          0.770694801         0.6991367273         0.6076907316         0.1855322018         0.3478691742        0.00703533333        -0.3137636582      0.0004805826721 
                   1                    1           15.0622142       -0.02935805537      -0.007586746351      -0.004178316812     -7.133906429e-08     -7.932168888e-32     -2.599661728e-62       -0.05884173247        -0.0604137306       -0.04415281455       -0.01719288027      -0.006747292934      -0.004312560008        0.04620947261     -0.0004040675677 
                   0                   36           2.07239794         0.4500891697         0.0986316991        0.03698440566      2.189538783e-08      9.685439051e-39      3.199327362e-77         0.8081947329          1.165863334         0.6742663416         0.1536195269         0.3045099245        0.02043775379         0.1225633131        0.01055651016 
                   1                    3          -2.38718852         0.7900055657         0.1731203426        0.06491577288      3.843122523e-08      1.700007748e-38      5.615523752e-77          1.417193288         0.8951034341          1.184064617         0.2688469274          0.529819878         0.0364731577         0.2175693511        0.02588102831 
                   1                    1          15.07712667       -0.03019469624      -0.006616809279      -0.002481137005     -1.468874679e-09     -6.497576699e-40     -2.146301764e-78       -0.04515153751           1.22542598       -0.03959156664      -0.008976937081       -0.02177226237      -0.002356929119       -0.01553269376       -0.01321446014 
                   0                   37           2.76788399         0.3297887348         0.1237627238         0.1292869168      0.0006491799889      5.171795279e-17      6.216386042e-34          1.579423161         0.7271036712          1.030043649         0.6502622672         0.2724616606          0.194651051        0.03508207498        0.01119235901 
                   1                    4          -1.16175662         0.5777407368         0.2168138559         0.2264914192       0.001137266636      9.060214918e-17      1.089018233e-33          2.734963543          3.003996701          1.817085548          1.128173549         0.4637090031         0.3603695498        0.04765477799         0.2118735047 
                   1                    1          15.02517803       -0.02087357299      -0.007833409623      -0.008183056635      -4.10890502e-05     -3.273424312e-18     -3.934585208e-35        0.01069770605         -1.948048271       -0.01853161323       -0.03923148258      -0.006977914499       -0.05689202738      0.0004748655186        -0.3309792458 
                   0                   38           8.42315812        -0.7091767466        -0.1220831632       -0.02302895094      -3.74652031e-11     -1.123147344e-52    -4.151769392e-105        -0.7226515339        -0.5719914089        -0.6428774473       -0.08865157282        -0.3718426048      -0.002662843997        -0.1689216653     -4.926841985e-06 
                   1                    1          -1.19424454         0.4123213341        0.07098017947        0.01338922606      2.178258467e-11      6.530073264e-53     2.413873696e-105           0.42184556         0.3300685967         0.3739627838        0.05308213004         0.2065405642        0.00144037605        0.06895514128      8.613359552e-06 
                   1                    1          14.93686588                   -0                   -0                   -0                   -0                   -0                   -0       0.008527750689       -0.02045553242       0.009389835734     -0.0009405340581         0.0158921315      7.694210829e-06        0.05609261198     -6.519454967e-07 
                   0                   39           4.89191752        -0.1165086529       -0.08864411804         -0.164245548        -0.1444800486     -8.956743507e-05     -2.470937734e-09         -1.381985045         -1.601964811        -0.4841423594         -1.086157501       -0.00115449706        -0.2850945166        0.09492146459       -0.07746039402 
                   1                    2          -0.01753914         0.2078494341         0.1581395829         0.2930112345         0.2577499233      0.0001597867646      4.408110445e-09          2.458536946          2.695731073         0.8331045318          1.960029969       -0.03541416342         0.5531289908       -0.05154728681         0.1025625214 
                   1                    1           15.0622142       -0.02003975509       -0.01524699129       -0.02825061036       -0.02485089921     -1.540580393e-05     -4.250069485e-10        -0.0301411837        0.08122685255       -0.03799553644        -0.1646334142        -0.3462684592        -0.2788002089        -0.4331366219          -0.54356005 
                   0                   40           6.33239814        -0.4623670126       -0.09993453262       -0.03617669508     -1.577525023e-08     -1.830637575e-39     -1.136355013e-78        -0.8090577873        -0.6278711033        -0.6749082527        -0.1510990372        -0.3754021968      -0.003952255182        -0.1883575639      5.039153594e-13 
                   1                    3          -2.38718852         0.7821948649         0.1690611054        0.06120078716      2.668728388e-08      3.096923595e-39      1.922392887e-78          1.367725905           1.13135823          1.140729405         0.2556607015         0.6296728447       0.007413445356         0.2243273898      4.423990884e-13 
                   1                    1          15.07712667        -0.0298961645      -0.006461661721      -0.002339147036      -1.02001108e-09     -1.183670993e-40     -7.347551941e-80       -0.04546251858        -0.1014108645       -0.03767200298      -0.008844714862       -0.01167710921     -0.0006576877856         0.1087341254     -6.877555314e-14 
                   0                   41           7.02788419        -0.6708046935        -0.1732365214       -0.09527474925     -1.606790986e-06     -1.692634365e-30     -5.185304059e-61         -1.688161946          -1.47834963         -1.319957263         -0.420482574        -0.6663844684       -0.03340373726        0.08663197866      -0.003191472289 
                   1                    4          -1.16175662         0.5723604495         0.1478131179        0.08129266065      1.370985653e-06      1.444231049e-30      4.424332433e-61          1.438142837          1.232659853          1.123788756         0.3600208265         0.4982629095        0.04414694358         0.3307579618        0.00423164922 
                   1                    1          15.02517803       -0.02067918507      -0.005340436824      -0.002937075711     -4.953323744e-08     -5.217956825e-32     -1.598496005e-62       -0.02963867106       -0.04028003362       -0.01753459952       -0.01412458689        0.02580205624      -0.002965165877        0.05947518675     -0.0007146864206 
                   0                   46           9.15191772        -0.7287865476        -0.1160995428       -0.01699372976     -3.261985137e-12     -9.328193349e-58    -3.291962035e-115        -0.6100648847        -0.4911138725          -0.54998593       -0.06608361672         -0.313537553     -2.173340527e-05       -0.05158344157     -1.338683397e-23 
                   1                    2          -0.01753914         0.1899252506        0.03025609463       0.004428647034      8.500888861e-13      2.430971682e-58     8.579010089e-116         0.1591741865         0.1285978225         0.1430536185        0.01771845929        0.07718986475      8.866842399e-06        0.01680366654     -9.603223133e-24 
                   1                    1           15.0622142       -0.01831159908      -0.002917134362     -0.0004269869789     -8.196112323e-14     -2.343815721e-59    -8.271432724e-117       -0.01313434873       -0.01110221937       -0.01146977019       -0.00183404211      -0.005533696619     -6.093892067e-07       0.001354277976     -3.250314126e-25 
                   0                    8          -0.09684228         0.9092325462         0.1968793749        0.07160755061      3.252824998e-08      4.514180833e-39      3.503902196e-78          1.597899598          1.305504067          1.337202198         0.2936059151         0.7416224989       0.008706844154         0.2765542636      1.291248504e-13 
                   1                    1           1.28255546                   -0                   -0                   -0                   -0                   -0                   -0      0.0001990476803       -0.02823569008      0.0002593547654     -0.0001251897416       0.002703276548     -0.0004989435481        0.06683112115     -5.907634824e-13 
                   1                    1          14.93686588                   -0                   -0                   -0                   -0                   -0                   -0        0.02268348815       -0.06229281518        0.02534645784      -0.002945886626         0.0475747343     -0.0003578044891         0.1510248843      -7.38415795e-14 
                   0                   10          -2.18760226        0.02718154385       0.002775986686      6.602681443e-05      3.745505652e-21      1.778257959e-93     5.308796265e-184       0.005371472244       0.004032812984       0.005135842253      0.0002574027175       0.003719992876      3.242231454e-10       0.001114682578      1.558206943e-46 
                   1                    3           0.08961148       0.005105854761      0.0005214488521      1.240265552e-05      7.035659185e-22      3.340327877e-94     9.972186583e-185       0.001008862503      0.0007579261927      0.0009646190581      4.833212857e-05      0.0006980178199      6.001063522e-11      0.0002083050966      8.000568577e-48 
                   1                    1          15.07712667     -0.0006003225922      -6.13095243e-05     -1.458246397e-06     -8.272199969e-23     -3.927401745e-95    -1.172483194e-185     -0.0001179806042     -8.873539702e-05     -0.0001127487446      -5.71531165e-06      -8.13122598e-05     -7.105494531e-12     -2.380774578e-05     -3.441406318e-48 
                   0                   11          -1.49211621         0.5421249671        0.07297606778       0.005803489531      7.153917463e-15      8.232191818e-70     5.499367014e-139         0.2778610761         0.2053518594         0.2601071185        0.01947099792         0.1727174045      6.201915572e-06        0.07079116186      5.993702967e-17 
                   1                    4           1.31504338      -0.003114351693     -0.0004192264774     -3.333937476e-05     -4.109719403e-17     -4.729156944e-72    -3.159227855e-141      -0.001575791541      0.0006160156159      -0.001480240495     -0.0001041262547     -0.0008696821053      5.658337651e-07       0.002219150145      6.374115574e-18 
                   1                    1          15.02517803      -0.008465764933      -0.001139586393     -9.062666569e-05     -1.117148024e-16     -1.285530183e-71    -8.587752131e-141       -0.00335279004       0.002594726309      -0.002989037397     -0.0003985030398      -0.001080037339     -2.479754609e-08       0.002191292224     -1.580818051e-19 
                   0                    1           0.63191732         0.8310436737          0.217999327         0.1239210028      2.795472067e-06      1.055998506e-29      1.595311216e-59          2.163019209          1.871774613          1.691122389         0.5388353361          0.808551723        0.04899050529         0.1938205042       0.004694554446 
                   1                    2           2.45926086        -0.2769263523       -0.07264330426       -0.04129384818     -9.315273155e-07     -3.518874202e-30     -5.316010815e-60        -0.7214869979        -0.6300558772        -0.5652906295        -0.1780310265        -0.3291450987       -0.00632298287         0.1108624116     -0.0001854337107 
                   1                    1           15.0622142       -0.02949952726      -0.007738314236      -0.004398819361     -9.923077096e-08     -3.748474083e-31     -5.662870458e-61       -0.06081070641       -0.05979502636       -0.04526087789       -0.01813249926      -0.007015195797      -0.003576547431        0.03156201654     -0.0008034450034 
                   0                    2           2.07239794         0.4643030153         0.2091882534         0.2706598067       0.009277826837      3.501638764e-12      1.649596118e-24          2.886426962          2.925639745          1.696737759          1.440510969         0.2593843045         0.4679222291        -0.2839282521         0.1021625156 
                   1                    3           0.08961148         0.2649216037         0.1193584486         0.1544328331        0.00529373423      1.997961948e-12      9.412250938e-25          1.674229474           1.52513017         0.9821209888         0.8040017236         0.5681736811        0.07532085916         0.5381285608        0.02828189787 
                   1                    1          15.07712667       -0.03114824673       -0.01403360977       -0.01815749233      -0.000622412584     -2.349110486e-13     -1.106648572e-25         -0.119397318       -0.08017367465       -0.09561169297       -0.07881950493       -0.09044586885        -0.1022965688        -0.2047042624        -0.1554249497 
                   0                    3           2.76788399         0.2109413146         0.1722757275         0.3283059767         0.3727300094       0.000712363119      8.025851489e-08          2.686986198          3.024987139         0.8481405469          2.232198148       -0.05554053191         0.6492897041       -0.09087202378         0.1650344299 
                   1                    4           1.31504338       -0.00491161227      -0.004011312712      -0.007644361496      -0.008678742194     -1.658684759e-05     -1.868760073e-09       -0.01509235324        -0.0273830527      -0.006652292299       -0.06503528887      -0.004285554692       -0.01637509958         0.1432522172        -0.2006834696 
                   1                    1          15.02517803       -0.01335127147       -0.01090398062       -0.02077972364       -0.02359148823     -4.508814883e-05     -5.079864143e-09         0.1119549306         0.1253199233        0.05771169241        -0.1542441929        -0.1213446698        -0.3000330197        -0.4976292229        -0.5801305005 
                   0                    4           8.42315812        -0.9092325462        -0.1968793749       -0.07160755061     -3.252824998e-08     -4.514180833e-39     -3.503902196e-78         -1.580672385         -1.315486531         -1.325649787        -0.2959673726        -0.5949164604       -0.03947011146        -0.2344152458       -0.03432769275 
                   1                    1           1.28255546                   -0                   -0                   -0                   -0                   -0                   -0       0.001199080735       -0.04315718048      0.0007628585326     -0.0008790815065      0.0002020961264     -0.0001879756382        0.03253142731      -0.002661928026 
                   1                    1          14.93686588                   -0                   -0                   -0                   -0                   -0                   -0         0.0261046024        -0.1032007469        0.02566146032      -0.003208555101        0.03424528763      -0.000392657502        0.08137315732      -0.007235831439 
                   0                    5           4.89191752        -0.1095984038       -0.09009626795        -0.1721121269        -0.1997364677     -0.0004205556203     -5.347809979e-08         -1.396481933         -1.552476052        -0.4571295465         -1.161543374        0.09169628722        -0.3030113298        0.08176146033        -0.2329338023 
                   1                    2           2.45926086        -0.1769651249        -0.1454756342        -0.2779040841        -0.3225082456     -0.0006790580452     -8.634942003e-08         -2.285742012         -2.594213364         -0.681999244         -1.922937017        0.05621389788        -0.5763947565        0.07034402789       0.003338955153 
                   1                    1           15.0622142       -0.01885117643        -0.0154967644       -0.02960367995       -0.03435512982     -7.233652972e-05     -9.198355624e-09      -0.008130698656        0.04054885272       -0.03154527585        -0.1769146142        -0.4041621076        -0.3485254947        -0.4825232782        -0.7115534322 
                   0                    6           6.33239814        -0.4882977752        -0.2130034384        -0.2664540927      -0.006742729507     -6.679009645e-13     -5.913126054e-26         -2.910914269         -2.809825671         -1.725890921         -1.413591008        -0.5969910694        -0.3101654634        -0.2578987547        -0.1109558618 
                   1                    3           0.08961148         0.2685326807         0.1171383267         0.1465327827        0.00370807184      3.673029974e-13      3.251842771e-26          1.590785471          1.676629094         0.9470124981         0.7826906379       -0.03762632498         0.3428519223        -0.4353974769       0.006262560354 