ITEM: TIMESTEP
0
ITEM: NUMBER OF ENTRIES
594
ITEM: BOX BOUNDS pp pp pp
0 4.26
0 2.4768
0 30
ITEM: ENTRIES c_2[1] c_2[2] c_2[3] c_2[4] c_2[5] c_2[6] c_2[7] c_2[8] c_2[9] c_2[10] c_2[11] c_2[12] c_2[13] c_2[14] c_2[15] c_2[16] c_2[17] c_2[18] c_2[19] c_2[20] c_2[21] c_2[22] c_2[23] 
                   0                   99           0.78360181       -0.01830985326       -0.00199859634     -6.540479352e-05     -1.446634621e-11     -1.359961115e-16     -5.915658667e-20     -9.504802986e-88     -7.10223558e-173      -0.004659120914      -0.003839877025      -0.004537182509     -0.0008749250139      -0.003666793439      -4.29130125e-07      -0.003108999236     -3.293748692e-10      -0.002064203802      1.250877573e-28        -0.0019695497       9.63489911e-53 
                   1                    2          -5.02752302         0.1661540008        0.01813639754      0.0005935202187      1.312758362e-10      1.234105904e-15      5.368204434e-19        8.6251977e-87     6.444971672e-172        0.04258512547        0.03488382349         0.0415284942       0.007837449938        0.03388459092      2.958908939e-06        0.02897904689      6.884087951e-09        0.01815345256      1.828358009e-28        0.01495549668      6.735308442e-53 
                   1                    1          15.09200297       -0.00494659806     -0.0005399416715     -1.766978796e-05     -3.908234492e-12     -3.674076967e-17     -1.598176963e-20      -2.56782178e-88    -1.918743107e-173      -0.001250239506      -0.001026499101      -0.001218499417     -0.0002278136713     -0.0009917707315     -9.003075015e-08     -0.0008510811997     -2.084999996e-10     -0.0005892082975     -6.178510834e-30     -0.0005406355337     -2.531289272e-54 
                   0                   77          -3.47639839         0.5122601808        0.08080531868        0.01143865207       6.45753785e-07      2.967782992e-10      1.659333815e-12      1.415314843e-58     1.103043969e-116         0.4168701497         0.3613215539         0.3950327719         0.1177836908         0.2683174622      0.0005120533796         0.2070459217      2.298341549e-05         0.1032444647      4.952872229e-14         0.0774974553     -6.643315703e-24 
                   1                    2          -2.55072302          0.538147001        0.08488877634        0.01201669881      6.783866398e-07      3.117758469e-10      1.743187446e-12      1.486837093e-58     1.158785762e-116         0.4402728129         0.3852469543         0.4180189401         0.1244010979         0.2907432849      0.0004935026033         0.2287187185      1.881794719e-05        0.07872758658       2.37452964e-13        0.01529406583      2.730709521e-23 
                   1                    1          15.09200297       -0.02659182014      -0.004194666267     -0.0005937892303     -3.352157584e-08     -1.540598986e-11      -8.61372951e-14     -7.347008248e-60    -5.725986113e-118       -0.02044914017       -0.01800743883       -0.01934128637      -0.005952254041       -0.01335851278      -3.21042502e-05        -0.0105937885     -1.042265469e-06       -0.00344705417     -1.115487075e-14      0.0002781812701     -1.242364248e-24 
                   0                   78          -2.11959972       0.008038708579      0.0008193765552      1.930121331e-05      1.119157318e-12      4.167059741e-18      9.995324358e-22      3.357894616e-94     6.795361745e-185       0.001569093689       0.001313766469       0.001530652256      0.0003105962532       0.001243265343      7.866202408e-08       0.001046374828      1.790004414e-10      0.0004923777934      1.035590855e-29      0.0002801525381      1.125637493e-53 
                   1                    3          -4.87393249        0.02203959577       0.002246471293      5.291782069e-05      3.068375304e-12       1.14247595e-17      2.740401723e-21      9.206284721e-94      1.86307321e-184       0.004303311178       0.003603045406       0.004197790238      0.0008508672891       0.003409133886      2.146788041e-07        0.00286974486      4.768429887e-10       0.001370132808      1.981760394e-29      0.0007971754296      1.528299959e-53 
                   1                    1          14.95182187     -0.0001643436705     -1.675136612e-05     -3.945947547e-07     -2.288009568e-14     -8.519153122e-20     -2.043447995e-23     -6.864892797e-96    -1.389246395e-186     -3.087123161e-05     -2.665595114e-05     -3.006996653e-05     -6.637313986e-06     -2.404085305e-05      -1.62016152e-09     -1.984853772e-05     -4.221052343e-12     -7.585782177e-06      -5.33528693e-31     -2.831174934e-06     -7.973910994e-55 
                   0                   79          -1.48136255         0.2240442845         0.0351639655       0.004892973571      2.587484354e-07       1.13443291e-10      6.147821035e-13      2.819738216e-59     1.012966652e-117         0.1796779726         0.1584339309          0.170419548        0.05229741654         0.1177981518       0.000160463411        0.09184133818      1.032920298e-06        0.01842650066      2.081344311e-14      -0.008894516948      1.593089178e-24 
                   1                    4          -3.74884391         0.7029418533         0.1103273986        0.01535176814      8.118265774e-07      3.559297992e-10      1.928886836e-12      8.846965283e-59      3.17819603e-117         0.5634597476         0.4932422623         0.5338710688          0.163449153         0.3611850097      0.0005489864362         0.2766917969      1.339332068e-05         0.1036353542      3.800010836e-14        0.04441175554      1.101435677e-24 
                   1                    1          15.09695429       -0.02703390263      -0.004242996965     -0.0005904018991     -3.122141688e-08     -1.368843168e-11     -7.418158225e-14     -3.402386654e-60    -1.222278082e-118       -0.02060032231       -0.01783876237       -0.01950105904      -0.005670602221       -0.01368478991     -2.799750521e-05       -0.01125776166     -5.064079597e-07      -0.005672053152     -1.781370388e-15      -0.002338180762     -8.802695146e-26 
                   0                   68           0.09698382                   -0                   -0                   -0                   -0                   -0                   -0                   -0                   -0      0.0007427383367      -0.005032521149       0.001782899552       -0.00821930252        0.01153709081      0.0004512759454        0.01639686922      8.245268454e-05        0.03583863724     -3.492193145e-05        0.04296401163     -2.219327066e-06 
                   1                    1          -3.75036167         0.8137120297         0.1388539779        0.02547174737      3.870552671e-06      3.640260861e-09      3.272168883e-11      3.518983774e-53     3.615938187e-106         0.8141858832          0.596911259         0.7649759005         0.2301202529         0.5216051649       0.005514038553         0.4110714273       0.002651515165         0.2170085997      0.0001433660013         0.1848667676      3.826136728e-06 
                   1                    1          14.90650595                   -0                   -0                   -0                   -0                   -0                   -0                   -0                   -0       0.009348617345       0.005980831012       0.009627890692      -0.001357850654        0.01222629331      3.342863597e-05        0.01384831734      1.545268402e-05        0.01312217708     -9.434524452e-06        0.01308329719     -5.995743822e-07 
                   0                   69           0.78360181          -0.15965555       -0.04042829583        -0.0213110905     -0.0001971691335     -3.741191319e-06     -2.475407012e-07     -5.075463049e-32     -2.011833266e-63        -0.3818550526        -0.3373770919        -0.3288163313        -0.1705770306        -0.1339379908       -0.02115491409       -0.06853912111       -0.01790532462        -0.1058406383      -0.001561447679        -0.2905623716      -0.001186659007 
                   1                    2          -2.55072302         0.8728882329          0.221034494         0.1165145848       0.001077987058      2.045429601e-05      1.353384616e-06      2.774918863e-31      1.099933942e-62          2.138974961          1.945044712          1.870931138         0.8713862928          1.094425188        0.09830297662           0.84472382        0.04121156562         0.3401945075       0.005058148165         0.1257356188       0.003128129619 
                   1                    1          15.09200297       -0.04313261403       -0.01092212629      -0.005757413638     -5.326730036e-05     -1.010721902e-06     -6.687570537e-08     -1.371189343e-32     -5.435177654e-64       -0.09560654995       -0.07943408694       -0.08368845555       -0.03176910146       -0.05335316119      -0.007365208469       -0.04252585306      -0.005076142061       -0.05971879824     -0.0004228426267       -0.09332683732     -0.0003205885516 
                   0                   70           2.14040048       -0.02107359589      -0.002191205037     -5.692794631e-05     -4.991367412e-12     -2.489557842e-17     -7.210863622e-21     -6.788857914e-92    -6.363849367e-181      -0.004522929262      -0.003762028512      -0.004424076024     -0.0008295974769      -0.003681495623     -1.682617568e-07      -0.003172201676      -4.17112096e-10      -0.001703851224     -1.581122817e-28       -0.00102818063     -1.113478308e-51 
                   1                    3          -4.87393249        0.06267338646       0.006516697044      0.0001693050962      1.484444802e-11       7.40400554e-17       2.14452837e-20      2.019022846e-91     1.892624271e-180        0.01345915072        0.01120306645        0.01316562212       0.002473517688        0.01095936906      5.503911186e-07       0.009435308458      1.268187525e-09       0.005009789976      2.198889135e-28       0.003037363928       8.22226122e-52 
                   1                    1          14.95182187      -0.000467339532     -4.859335547e-05     -1.262465121e-06     -1.106912803e-13     -5.520978966e-19     -1.599120363e-22      -1.50553408e-93    -1.411281871e-182     -8.998852249e-05     -7.966992723e-05     -8.750719249e-05     -2.201386514e-05     -6.819247386e-05     -3.767612352e-09      -5.38403822e-05     -9.617124827e-12     -3.581569602e-06     -7.662023916e-30      2.002872654e-05     -6.568424471e-53 
                   0                   71           2.77863765        -0.2631743758         -0.035681962      -0.002917611403     -2.068280345e-08     -2.154657507e-12     -4.514188861e-15     -1.362304663e-69    -3.027682055e-138        -0.1394455843        -0.1186295871        -0.1349835883       -0.03008921294        -0.1058538013     -6.486341297e-05       -0.08850030795     -4.217289966e-06       -0.04520694254     -5.522783511e-11       -0.03321805603     -6.508126002e-17 
                   1                    4          -3.74884391         0.4859915689        0.06589217756       0.005387813837      3.819394676e-08      3.978903262e-12      8.336137289e-15      2.515703053e-69     5.591076061e-138         0.2579124138         0.2127589581         0.2497291432        0.05442243293         0.1956719311      0.0001281559296         0.1627723909      1.106115051e-05         0.0832223513      1.313899753e-10        0.06470842949      1.260401156e-16 
                   1                    1          15.09695429       -0.01869037772      -0.002534096816     -0.0002072058079     -1.468871761e-09     -1.530215947e-13     -3.205931226e-16     -9.674949794e-71    -2.150229142e-139      -0.009555027593       -0.00592695977      -0.009227667839       -0.00228976097      -0.006925564155     -3.847518907e-06      -0.005274575167     -1.291001834e-07      0.0009416395581     -2.292920328e-12       0.003938687387     -4.297419841e-18 
                   0                   73           5.04360201        -0.1655499836       -0.01843914205     -0.0006621224976     -2.099814312e-10     -2.523096146e-15       -1.2858229e-18     -4.109419951e-85    -1.210541471e-168       -0.04592094852       -0.03803923328       -0.04474956543      -0.008841565946        -0.0362031769     -3.321142009e-06       -0.03063335678     -1.060586403e-08        -0.0177890067     -1.621020554e-27       -0.01356302937     -4.078709369e-51 
                   1                    2          -2.55072302         0.1256349724        0.01399336353      0.0005024811233      1.593537537e-10      1.914763795e-15        9.7580393e-19      3.118616209e-85     9.186732673e-169        0.03475932745        0.02882094015        0.03386359493       0.006707486404        0.02737122525      2.747353045e-06        0.02315476822      6.767630893e-09        0.01369707607     -2.180653513e-28        0.01081531546     -2.127755805e-51 
                   1                    1          15.09200297      -0.006208085492      -0.000691463495      -2.48294381e-05     -7.874254337e-12     -9.461551273e-17     -4.821805667e-20     -1.541022827e-86    -4.539502077e-170      -0.001685502283      -0.001417559145      -0.001639578482     -0.0003425949622      -0.001306848115     -1.280584117e-07      -0.001094148882     -3.837624442e-10     -0.0006372408784     -4.516777876e-29     -0.0004726918271     -9.663311018e-53 
                   0                   50          -5.74136275         0.1061045946        0.01129337891      0.0003283042983      4.546713668e-11      3.106505474e-16      1.100822721e-19      3.948935106e-89     2.873961528e-176        0.02537895745        0.02053536638        0.02479327889       0.004427434453         0.0204825756       1.42378252e-06        0.01762529916      2.354993356e-09        0.01129773812      3.716723075e-30       0.009836309355      3.355704428e-56 
                   1                    4          -1.27204391         0.0449851367       0.004788050846      0.0001391910859      1.927668983e-11      1.317064298e-16      4.667155158e-20      1.674228965e-89     1.218472703e-176         0.0107678495       0.008717897606        0.01051983493       0.001884012704       0.008689124937      5.673075798e-07       0.007477587708      1.145112849e-09       0.004762289656      5.658329229e-30        0.00403722695      1.544589029e-55 
                   1                    1          15.09695429      -0.003461158679     -0.0003683928729     -1.070936915e-05     -1.483149484e-12     -1.013349933e-17     -3.590911525e-21     -1.288152607e-90    -9.374935107e-178      -0.000819951673     -0.0006717423982     -0.0008004876366     -0.0001465954452     -0.0006579499948     -4.648779165e-08     -0.0005648637176      -7.64013118e-11     -0.0003691647441     -1.212404442e-31     -0.0003243560253     -1.094639262e-57 
                   0                   42          -4.16301638         0.7091767466         0.1220831632        0.02302895094      3.894688774e-06      3.958702083e-09       3.74652031e-11      1.123147344e-52     4.151769392e-105          0.726688835         0.6365762386         0.6830316101         0.2132322108         0.4667897454       0.005014995654         0.3682097117       0.002587322947          0.164376233      0.0001556121026         0.1069240019      4.634861514e-06 
                   1                    1          -1.27356167         0.4123213341        0.07098017947        0.01338922606       2.26440486e-06      2.301622737e-09      2.178258467e-11      6.530073264e-53     2.413873696e-105         0.4244036554         0.3432755571         0.3998129205         0.1081842186         0.2833187954       0.003460817261         0.2301345818       0.001577417659         0.1552840952        4.1115225e-05          0.167455093     -2.072085874e-07 
                   1                    1          14.90650595                   -0                   -0                   -0                   -0                   -0                   -0                   -0                   -0       0.009964614917     -0.0001516389948        0.01035795079      -0.004359248861        0.01403570263      3.118301024e-05        0.01683605534      1.304892153e-05        0.02276474919       -1.1438706e-05         0.0295085267     -6.725161242e-07 
                   0                   43          -3.47639839         0.8332931227         0.2126634854         0.1140193808       0.001127986791      2.248439614e-05      1.537288792e-06      6.063082132e-31      5.442461164e-62          2.061212398           1.85848897          1.791366716         0.8479925139          1.024846307         0.1073009164         0.7805402905        0.05119659939         0.3814035274       0.005706012786         0.3481619884       0.002472597696 
                   1                    2          -0.07392302         0.2978270185        0.07600798575        0.04075162905      0.0004031533846      8.036140564e-06       5.49441877e-07      2.167004173e-31      1.945188239e-62         0.7425500217         0.7057073197         0.6484513013         0.3081043217         0.4199912034        0.03512769885         0.3482943491       0.007690227654        0.06818348712       0.001049379357        -0.2564751735      9.275093723e-05 
                   1                    1          15.09200297       -0.04325688716       -0.01103952516      -0.005918833787     -5.855466221e-05     -1.167182304e-06     -7.980184402e-08     -3.147392586e-32     -2.825223466e-63       -0.09707578203       -0.07621747886       -0.08430121267       -0.03157159456       -0.05186504355      -0.008004909454       -0.03965368823      -0.005454992115       -0.06285480191     -0.0005312534321        -0.1122152024      -0.000329956146 
                   0                   44          -2.11959972         0.4768973569         0.1044197435        0.03907248513      9.397115286e-05      6.628187078e-07      2.271248865e-08      9.274181617e-39      2.772003216e-77          0.853188872         0.7820268292         0.7666738959         0.3356424402         0.4228781367         0.0265919985         0.2879558992        0.02184275508         0.1096662028        0.01826455606        0.07820506137        0.01509255342 
                   1                    3          -2.39713249         0.7746188209         0.1696077728        0.06346498239      0.0001526362488      1.076608705e-06      3.689163071e-08      1.506394515e-38      4.502532529e-77          1.389989649          1.235796331          1.250978997         0.5241304203         0.7090044114        0.04365448576         0.4990794211        0.03517195547         0.2286771556        0.02641219898         0.2125994182        0.01928457788 
                   1                    1          14.95182187      -0.009749708092      -0.002134761292     -0.0007987994039       -1.9211499e-06     -1.355069141e-08     -4.643350003e-10     -1.896017293e-40     -5.667094143e-79       0.006137168987       -0.05794020346        0.00820794238       -0.02782521379        0.01695241601     -0.0005795758531        0.02119684779      -0.001530967332        0.07265337032      -0.008080437714         0.1332705262       -0.01267733475 
                   0                   45          -1.48136255         0.3772021317         0.1342121705         0.1302465389        0.01365948289       0.001553488137      0.0003383652724      1.480535822e-18      4.736593824e-37           1.68188479          1.625879308          1.310093424         0.9813557001         0.4721572221         0.2455148335         0.2234309156         0.1971984264        0.02344080337         0.1136995339        0.04602261031        0.08706889784 
                   1                    4          -1.27204391         0.5915569328         0.2104816841         0.2042624805        0.02142183494       0.002436297677      0.0005306500305      2.321888336e-18      7.428284939e-37           2.64610208          2.576947351          2.060875807          1.520763138          0.818960407         0.3860361643         0.4775010986         0.2921065355        0.07555017591         0.1151001064        0.02955642221        0.04054660598 
                   1                    1          15.09695429       -0.04551442015       -0.01619447136       -0.01571596552      -0.001648197057     -0.0001874488657     -4.082824003e-05     -1.786462053e-19     -5.715326167e-38        -0.1596670715       -0.08287338765        -0.1188725266       -0.05279206767        -0.1021117021       -0.05246610416        -0.1133520629        -0.0762354863        -0.1324058159         -0.201544882        -0.2059959127        -0.2334349786 
                   0                   34           0.09698382                   -0                   -0                   -0                   -0                   -0                   -0                   -0                   -0         0.0276956361       -0.08495522733        0.05861685334        -0.1595349972         0.3047876652       -0.08516583418         0.4507934588        -0.1600724176         0.5398445476        -0.0486631244         0.5310100003      -0.004553248218 
                   1                    1          -1.27356167         0.5572350607         0.2433932895         0.3048959963        0.08916197783        0.02165100651       0.007813167168      8.180428237e-13      7.761829956e-26          3.297296651          3.372988866          2.464568149           2.20142407         0.8645616433         0.6415164998         0.5228084646          0.423798095        0.06993427312         0.1660135428        0.02923040427         0.1517500797 
                   1                    1          14.90650595                   -0                   -0                   -0                   -0                   -0                   -0                   -0                   -0         0.1324054424         0.0726468466         0.1560918058       -0.04893489625         0.2118458484       -0.03468722397          0.255197754       -0.04885571697         0.1829582779       -0.01481180382         0.1548123177      -0.001286611673 
                   0                   35           0.78360181        -0.1077222458       -0.08396422735        -0.1571377609         -0.232951703        -0.1883181783        -0.1513531833     -0.0001400188934     -6.370428307e-09          -1.35219128         -1.473742254        -0.6781865476         -1.311822273         0.1240427681        -0.5363717563         0.1335363883        -0.3316513614        0.02213900347        0.02187502162         0.1625165431         0.1201947615 
                   1                    2          -0.07392302         0.2003715179         0.1561798082         0.2922881103          0.433307772          0.350286043          0.281528359      0.0002604457231      1.184947807e-08          2.569178836           2.72819553          1.449070039          2.274996935        0.09712576167         0.7845975636       -0.04023983931         0.4476098946        -0.1790934208         0.1293906407       -0.09307055739        0.09785248301 
                   1                    1          15.09200297       -0.02910228959       -0.02268381282       -0.04245240701       -0.06293433516       -0.05087612237       -0.04088964299     -3.782756619e-05      -1.72103773e-09        -0.2545049237        -0.1516497773        -0.0638881993       -0.01892053485        -0.5103336014        -0.4097172007        -0.6894891243        -0.3738114893        -0.7889214471        -0.4011780354         -0.862376369        -0.4246546696 
                   0                   36           2.14040048        -0.4488197209        -0.1013679167       -0.04098691714     -0.0001335420626       -1.1768701e-06       -4.6761623e-08     -3.657278228e-37     -4.371737615e-74        -0.8683503589        -0.7617985278        -0.7797676894        -0.3074000902         -0.497277041       -0.02472615277        -0.3987870109      -0.005851254659        -0.1951171758      -3.43003127e-05        -0.1538399418     -1.487392859e-06 
                   1                    3          -2.39713249         0.7907919409         0.1786038534        0.07221635379      0.0002352926619      2.073570628e-06      8.239102003e-08      6.443892756e-37      7.702724975e-74          1.538463455          1.370646772          1.384853651         0.5502316753         0.8853341644        0.04148607274         0.6967013345       0.009119404781         0.3032869044      6.790614755e-05         0.2017286252      2.156559576e-06 
                   1                    1          14.95182187      -0.009953270405      -0.002247990092     -0.0009089481819     -2.961501461e-06     -2.609891186e-08     -1.037011202e-09      -8.11057925e-39      -9.69500327e-76       0.005588729942       -0.04090195604       0.008526634647       -0.03485216526        0.02814041594      -0.001496454193        0.04864470847     -0.0007970488587         0.1713430965      -8.00957212e-07         0.2632006733     -3.298527904e-08 
                   0                   37           2.77863765        -0.6357124069        -0.1711188209        -0.1025964942      -0.001579520793     -4.360214097e-05     -3.702034562e-06     -1.100205604e-28     -2.187714745e-57         -1.762060703         -1.615486337         -1.525758477         -0.741749724         -0.904597888         -0.087635188        -0.7048673167       -0.02882982882        -0.1907404939      -0.004035774748        0.04913359762      -0.001945836923 
                   1                    4          -1.27204391         0.5867899924         0.1579500581        0.09470099279       0.001457965873      4.024665822e-05      3.417137701e-06      1.015537264e-28      2.019355144e-57           1.62898094          1.487759822          1.411659882         0.6996381571          0.761926543        0.07966798819         0.5525008856        0.03863749587         0.2511060491       0.004778055155         0.2258747682       0.003102489535 
                   1                    1          15.09695429       -0.04514765152       -0.01215268541      -0.007286299147     -0.0001121759676     -3.096579907e-06     -2.629147465e-07     -7.813548812e-30     -1.553692863e-58        -0.1142824393        -0.1022904112       -0.09895392115       -0.04527598052        -0.0602700696      -0.009276544963       -0.04273966038       -0.00534682185       -0.03219502783     -0.0005776907233       -0.04242799647     -0.0005204759594 
                   0                   38           4.35698402        -0.7091767466        -0.1220831632       -0.02302895094     -3.894688774e-06     -3.958702083e-09      -3.74652031e-11     -1.123147344e-52    -4.151769392e-105         -0.732637573        -0.6370873465        -0.6907015892        -0.2067623837        -0.4771609363      -0.003365681454        -0.3770668192      -0.001105046909        -0.1988673337     -5.101541799e-05        -0.1626080152     -1.158152576e-06 
                   1                    1          -1.27356167         0.4123213341        0.07098017947        0.01338922606       2.26440486e-06      2.301622737e-09      2.178258467e-11      6.530073264e-53     2.413873696e-105         0.4259142273         0.3404064967         0.4002772683         0.1204747251         0.2664009161       0.001360413972         0.2070570495      0.0005120162779         0.0937193494      3.511691772e-05         0.0788394365      1.163301224e-06 
                   1                    1          14.90650595                   -0                   -0                   -0                   -0                   -0                   -0                   -0                   -0       0.009988893935       -0.01794168105        0.01045460902      -0.007240128894        0.01426468417      -2.24652955e-07        0.01690164705      1.766970463e-05        0.02235657832     -1.134218372e-06         0.0290911209     -1.018489905e-07 
                   0                   39           5.04360201        -0.7430362573        -0.1201703395        -0.0185043092     -1.439495094e-06     -8.338339229e-10     -5.434902105e-12     -9.775328629e-57    -3.426615065e-113        -0.6549913117        -0.5724004531        -0.6195646526        -0.1894899097        -0.4209390618     -0.0007977121661        -0.3291667869     -2.729593896e-05        -0.1334679489     -1.942573814e-13       -0.05643225863     -1.453884702e-23 
                   1                    2          -0.07392302         0.1918436299        0.03102663418       0.004777605145       3.71661492e-07      2.152865691e-10      1.403230782e-12      2.523880241e-57     8.847135871e-114         0.1678763114         0.1467606037         0.1583375323        0.05000144792         0.1034999358       0.000218193117        0.07877446013      1.045064909e-05        0.04098492412     -5.836449759e-14        0.02276231763     -1.343493404e-23 
                   1                    1          15.09200297       -0.02786368509      -0.004506359499     -0.0006939072477     -5.398072782e-08     -3.126857621e-11     -2.038075521e-13      -3.66572527e-58    -1.284972599e-114       -0.02282478551       -0.01987662946       -0.02145824952       -0.00668759534       -0.01446661799     -4.290615593e-05       -0.01167630086     -1.208951878e-06      -0.006002718143     -7.284606169e-15      -0.003030630729     -5.452033474e-25 
                   0                   16          -5.74136275          0.441532136        0.05581869849       0.003458573385      8.652568061e-09      4.327422778e-13      5.592322633e-16      1.235471814e-74     1.931432893e-148          0.191177323         0.1585575553         0.1856672939        0.03931079518         0.1471542501      3.607620231e-05         0.1225179239      6.459315754e-07        0.06108450641      5.775927427e-19          0.046867202      5.131048946e-34 