ITEM: TIMESTEP
0
ITEM: NUMBER OF ATOMS
4
ITEM: BOX BOUNDS pp pp pp
0.0000000000000000e+00 4.2600002000000003e+00
0.0000000000000000e+00 2.4767999999999999e+00
0.0000000000000000e+00 3.0000000000000000e+01
ITEM: ATOMS id type c_1[1] c_1[2] c_1[3] c_1[4] c_1[5] c_1[6] c_1[7] c_1[8] c_1[9] c_1[10] c_1[11] c_1[12] c_1[13] c_1[14] 
1 1          13.96476828           12.6056247          6.087028169         0.3146457277      8.209501999e-05      3.970337409e-09          48.62363503          43.28192689          36.32295265          14.43260378          15.46476914          2.429582278          3.182247822         0.7022581642 
2 1          13.95468975          12.59514658          6.118705648         0.3743625906      0.0001299729975      6.821040225e-09          48.54435974          43.44277107          36.05384794          14.73436012          15.06147656          2.618901715          3.001557259         0.8427222953 
3 1          13.94237855          12.58225528           6.12121982         0.4130077333      0.0003732397664      1.093201542e-07          48.54893162          43.37959195          35.93874262          14.79758006          15.02403822          2.578249576          3.068411345         0.6466277147 
4 1          13.95563384          12.59596947          6.100785762         0.3561170562      0.0003253617947      1.064694514e-07          48.61704561          43.32887597           36.1749804          14.57122697          15.36642044          2.445516581          3.225201488         0.5590843351 
