ITEM: TIMESTEP
0
ITEM: NUMBER OF ENTRIES
594
ITEM: BOX BOUNDS pp pp pp
0 4.26
0 2.4768
0 30
ITEM: ENTRIES c_2[1] c_2[2] c_2[3] c_2[4] c_2[5] c_2[6] c_2[7] c_2[8] c_2[9] c_2[10] c_2[11] c_2[12] c_2[13] c_2[14] c_2[15] c_2[16] c_2[17] 
                   0                   79          -1.35848543         0.2047448887        0.03244029361       0.004661827495       7.67075294e-13      1.127416417e-58     1.733232841e-116         0.1699023454         0.1369290778          0.154006447        0.01749905893        0.09393092202      9.821758657e-07      0.0002204103839      4.343907499e-24 
                   1                    4          -3.76143003         0.7191569529         0.1139450311        0.01637445348      2.694316496e-12      3.959998024e-58     6.087900199e-116         0.5942337268         0.4791760785         0.5350409057        0.06509171144         0.3004561097      1.372131961e-05         0.0520006929      3.483550988e-24 
                   1                    1          14.92721028        0.01731461014       0.002743370251      0.0003942356077      6.486906583e-14      9.534194403e-60     1.465738711e-117        0.01569258126        0.01220656275          0.014422062       0.001399998405       0.009718061202      3.998343584e-07       0.002216014181      7.459366324e-26 
                   0                   68           0.05760491                   -0                   -0                   -0                   -0                   -0                   -0     -0.0004705512243      -0.009046406945       0.001775110914      -0.002391189588        0.01272888127      0.0001071457831        0.05011430566     -4.946692665e-06 
                   1                    1           -3.7410782         0.8137120297         0.1388539779        0.02547174737      3.272168883e-11      3.518983774e-53     3.615938187e-106         0.8164880819         0.5558731423         0.7303728489        0.09535046848         0.4298482705         0.0015747799         0.1966784574      2.182257581e-05 
                   1                    1          15.04696444                   -0                   -0                   -0                   -0                   -0                   -0       -0.00266715138      -0.001189601285      -0.002823971832      0.0001707064337      -0.004231848419     -3.427982471e-06      -0.003828318809      2.900042261e-07 
                   0                   69           0.68354789       -0.02863859519      -0.003308610495     -0.0001399462855     -1.030452784e-18      -6.76814605e-83    -1.437514804e-163      -0.008987227562      -0.006609159312      -0.008493726154     -0.0005408317903      -0.006013390157     -5.340765553e-08       -0.00434122008      1.518667953e-31 
                   1                    2          -4.86110146         0.2778847969        0.03210396842       0.001357920836       9.99864556e-18      6.567238644e-82     1.394843241e-162         0.0874031621        0.06370293678        0.08288924885       0.004940677372        0.05903189377      2.901102641e-07        0.03142562068      4.241676378e-31 
                   1                    1          15.01026798       0.001678962935      0.0001939702123       8.20447458e-06       6.04112045e-20      3.967885394e-84     8.427557491e-165      0.0004957705649       0.000362891666      0.0004665098673      3.202007678e-05      0.0003246280776     -9.406503172e-10      0.0002584432807      1.906104123e-32 
                   0                   70           2.07023951       -0.01489655088      -0.001535562234      -3.82391534e-05     -3.312567295e-21     -7.638186739e-93    -1.385739111e-182      -0.003075246525      -0.002292100716      -0.002942766854     -0.0001447248719      -0.002153540171     -2.061040373e-10     -0.0007270099632     -4.018514052e-52 
                   1                    3          -4.90122285        0.04525099005       0.004664550331      0.0001161584023      1.006252729e-20      2.320238523e-92     4.209435272e-182       0.009339175058       0.006971221007       0.008935904047      0.0004405534785       0.006526959788      6.492980298e-10       0.002177008805      3.952525714e-52 
                   1                    1          15.08592171     -0.0002883429286     -2.972288787e-05     -7.401706318e-07     -6.411922885e-23     -1.478474548e-94     -2.68228583e-184     -6.229064842e-05     -4.531168502e-05     -5.982764164e-05     -2.691112872e-06     -4.532821505e-05     -4.413298718e-12      -2.11504516e-05      8.963341416e-54 
                   0                   71           2.90151477        -0.2496511938       -0.03276662969      -0.002360171817     -1.297214514e-15     -4.899402627e-72    -4.628815592e-143        -0.1192047078       -0.07964584093        -0.1121494215      -0.007728068166       -0.07564944725     -6.372767028e-07       -0.03202487576     -1.378384144e-31 
                   1                    4          -3.76143003         0.4366358546        0.05730829939       0.004127901905      2.268806968e-15      8.568975059e-72      8.09572276e-143         0.2082484441         0.1557680914         0.1957742828        0.01366322708         0.1310646615      1.180199212e-06        0.05269821421      8.224666732e-32 
                   1                    1          14.92721028        0.01051255858       0.001379769545      9.938444159e-05       5.46243876e-17      2.063088758e-73     1.949147302e-144       0.005390705255       0.004931416655       0.005149513296       0.000264530225       0.003949044601      3.301830622e-08       0.003449009127      1.353312981e-33 
                   0                   50          -5.61848563         0.1967070275         0.0219869401      0.0008022913499      1.776630889e-18      9.539154006e-85     5.325672241e-168        0.05504618093        0.04011177903        0.05229871184       0.003005911574        0.03745120606      7.124610734e-08        0.01940927853      1.520651463e-31 
                   1                    4          -1.28463003        0.08653972486       0.009672983071      0.0003529618315      7.816149238e-19      4.196676518e-85     2.342988028e-168        0.02426211793        0.01783851739        0.02306953161       0.001304487293        0.01660348349      2.160271338e-08       0.008415991773      9.354913575e-32 
                   1                    1          14.92721028       0.004150124927      0.0004638804691      1.692674315e-05      3.748335905e-20      2.012570742e-86     1.123610346e-169       0.001206854618      0.0006879942963       0.001151919959      6.012916218e-05      0.0008781756305       1.12892108e-09      0.0009700501698      4.161305862e-33 
                   0                   42          -4.20239529         0.7091767466         0.1220831632        0.02302895094       3.74652031e-11      1.123147344e-52     4.151769392e-105         0.7219844612         0.5871588416         0.6402453844        0.09059993038         0.3588643247       0.001742203313         0.1082379791      4.428402698e-07 
                   1                    1           -1.2642782         0.4123213341        0.07098017947        0.01338922606      2.178258467e-11      6.530073264e-53     2.413873696e-105         0.4191975862         0.3000869445         0.3738715186        0.05038231322         0.2280873255       0.001110556907         0.1494449561     -2.461565241e-08 
                   1                    1          15.04696444                   -0                   -0                   -0                   -0                   -0                   -0      -0.002844840048       -0.01043984189      -0.003207855413      0.0003963720544      -0.004518415573     -2.258801347e-06        0.01145217426      1.042614941e-08 
                   0                   43          -3.57645231         0.5455410619        0.08819974182        0.01356597307      3.946735572e-12       6.81248802e-57     2.268433455e-113         0.4731518754         0.3839834336         0.4235557932        0.05456795956         0.2270464265      3.341529033e-05         0.0430186894     -2.636126926e-23 
                   1                    2          -2.38430146         0.5399515368         0.0872960616        0.01342697831       3.90629796e-12      6.742688374e-57     2.245191455e-113         0.4680534497         0.3801963734         0.4202721013        0.05260288351         0.2350276656      3.110199409e-05        0.01970121996      9.604159065e-23 
                   1                    1          15.01026798       0.005508836142        0.00089063493      0.0001369882635       3.98538645e-14      6.879203573e-59      2.29064851e-115       0.003869485483       0.003306996024        0.00320782293      0.0007298505906       0.001267760066      3.503842442e-07      0.0001012019362     -9.899693777e-25 
                   0                   44          -2.18976069         0.4777498819         0.1028912219        0.03690611145      1.485898311e-08      1.216103783e-39      4.880138731e-79         0.8245575049         0.6586801229         0.6940280204         0.1504332845         0.3042745853          0.016563604         0.1763238654        0.01786339935 
                   1                    3          -2.42442285         0.7731496277         0.1665103707        0.05972570044       2.40465099e-08      1.968038554e-39      7.897599949e-79          1.332325866           1.13961703          1.116039857         0.2461475087         0.4815475444        0.02600111758         0.1417233504        0.01418581905 
                   1                    1          15.08592171      -0.008281621442      -0.001783582125     -0.0006397540963     -2.575750991e-10     -2.108071931e-41     -8.459544018e-81       -0.02615170307        0.03719112563        -0.0256555169     -0.0004399178036       -0.02750746043     -0.0002312773989        -0.1200308512      0.0007971507444 
                   0                   45          -1.35848543         0.3365552237         0.1232535482         0.1245618096      0.0004650412045      1.004548695e-17      2.363599682e-35           1.50832648           1.52504084          1.055027375          0.601346827         0.3089280888         0.2058672478       -0.07244596577         0.2690295415 
                   1                    4          -1.28463003         0.5934857889         0.2173468845         0.2196538892       0.000820059612      1.771434026e-17       4.16800193e-35          2.737642515          2.588781212          1.815089536          1.094983064         0.4187011737         0.3229487917        0.09264333731        0.06699882328 
                   1                    1          14.92721028        0.02846138199        0.01042315219        0.01053378761      3.932702401e-05      8.495141997e-19      1.998819471e-36         0.1141172066         0.0442599748         0.1199798715        0.03939326857         0.1120319655         0.0356549925         0.1828470377         0.1680037835 
                   0                   34           0.05760491                   -0                   -0                   -0                   -0                   -0                   -0        0.02790417119         -0.147029528        0.02854962271       -0.02667478885         0.4382213691        -0.1459227833         0.6560141587       -0.02548303801 
                   1                    1           -1.2642782         0.5572350607         0.2433932895         0.3048959963       0.007813167168      8.180428237e-13      7.761829956e-26          3.235806006           3.26212504          2.012831396          1.585594469         0.5747400851         0.4646802158        0.04290775589         0.1529219682 
                   1                    1          15.04696444                   -0                   -0                   -0                   -0                   -0                   -0       -0.03844711295       -0.01197212072       -0.04671737417        0.01166817578        -0.0760878914        0.01032913808       -0.04568332123       0.001574985891 
                   0                   35           0.68354789         -0.148432919       -0.04000392858       -0.02404507474     -8.870296363e-07     -2.905048678e-29     -6.521942473e-58        -0.4033953861        -0.3204948416        -0.3093703228        -0.1091983436       -0.07853441807       -0.02750024834        -0.4177777388      -0.004044946408 
                   1                    2          -2.38430146          0.852932284         0.2298724731         0.1381689497      5.097091796e-06      1.669312859e-28      3.747669538e-57          2.338334343          2.032822963          1.820360365         0.5953668813         0.9024489659        0.07145955771         0.1346243214       0.007386730438 
                   1                    1          15.01026798       0.008702010964       0.002345265642       0.001409663742       5.20028958e-08      1.703110443e-30      3.823546373e-59        0.01734941448        0.01220794745        0.01269175266       0.005620397431       0.005952046933       0.001678409084        0.02949567176       0.000240591327 
                   0                   36           2.07023951        -0.4403980842       -0.09887833682       -0.03940021847     -3.957817748e-08     -1.772489523e-37     -1.055747001e-74        -0.8400971874        -0.6926912721        -0.7005532706         -0.157571973        -0.3984916121      -0.006591338929        -0.1509186174     -1.190009065e-06 
                   1                    3          -2.42442285         0.7958242674         0.1786787518        0.07119842508      7.152000709e-08      3.202988902e-37      1.907794592e-74          1.514287028          1.222325615          1.260022586         0.2872526772          0.700809846        0.01094266197         0.2768212118       2.10201864e-06 
                   1                    1          15.08592171      -0.008524501702      -0.001913924199     -0.0007626446197     -7.660892575e-10     -3.430893661e-39     -2.043541384e-76       -0.02934375019         0.1093580158       -0.02788247056      -0.001659421793       -0.03363432029      0.0001364361223        -0.1175619792      -2.30324406e-08 
                   0                   37           2.90151477        -0.6642823264        -0.1703208401       -0.09223748996     -1.358210186e-06      -7.88738123e-31     -1.148104092e-61         -1.659634051         -1.440289945         -1.317559798        -0.3898124067        -0.6904286853        -0.0252146446        0.07625552615      -0.001220727482 
                   1                    4          -1.28463003         0.5832863588          0.149553614        0.08099096954       1.19260357e-06      6.925672558e-31      1.008115719e-61          1.450762345          1.236783512          1.141504323           0.35258046         0.5260596814        0.03422607272         0.3234417878       0.001282867966 
                   1                    1          14.92721028        0.02797225507       0.007172037841       0.003884027158      5.719285347e-08      3.321296245e-32      4.834549893e-63        0.07982099835        0.05041276753         0.0704151009        0.01118913232        0.06858982943       0.003184020959         0.1050730418      6.932460651e-05 
                   0                   38           4.31760511        -0.7091767466        -0.1220831632       -0.02302895094      -3.74652031e-11     -1.123147344e-52    -4.151769392e-105        -0.7243936017        -0.5625070906        -0.6458106418       -0.08734130911        -0.3774296427      -0.002441694968        -0.1840743574     -1.608694396e-06 
                   1                    1           -1.2642782         0.4123213341        0.07098017947        0.01338922606      2.178258467e-11      6.530073264e-53     2.413873696e-105         0.4209288068         0.3145665267          0.372944271        0.05322170692         0.2090805097       0.001296510702        0.06149561362       3.05749654e-06 
                   1                    1          15.04696444                   -0                   -0                   -0                   -0                   -0                   -0      -0.002693306865       -0.07780951025      -0.002815817415      0.0001272804462      -0.003917848529     -1.040807898e-05       0.007543932724       3.01229431e-07 
                   0                   39           4.94354809        -0.2451918827       -0.02870433549      -0.001286565482     -1.514606922e-17     -6.671277753e-81    -1.498780959e-160       -0.08005729902       -0.05934307967       -0.07569655454      -0.004771588417       -0.05243583486     -4.664268048e-08       -0.02530940089     -1.053868368e-40 
                   1                    2          -2.38430146         0.1804998205        0.02113090917      0.0009471147088      1.114989104e-17      4.911110529e-81     1.103338703e-160        0.05885183586        0.04352483874        0.05562149875       0.003535445176        0.03858300398      2.278426775e-08        0.02019000791      1.824487693e-40 
                   1                    1          15.01026798       0.001841542929      0.0002155873411      9.662903766e-06      1.137563625e-19      5.010542861e-83     1.125677346e-162      0.0005558947583      0.0004750297335       0.000519753237      3.955812019e-05       0.000340229206     -1.001097021e-10      0.0001209104023      4.654570308e-42 
                   0                   16          -5.61848563          0.531108877        0.07097940953       0.005488690766      5.381348973e-15      2.347200003e-70     4.678841904e-140         0.2671687693         0.1980047191         0.2505510769        0.01824454875         0.1694623168       3.11025522e-05        0.06781106801       4.86356071e-17 
                   1                    4           1.19216997       0.001904310282       0.000254499266      1.967990126e-05      1.929502334e-17      8.415971364e-73     1.677615858e-142      0.0009082138257      0.0003447158107      0.0008531565171      5.829322089e-05     -0.0001258571809     -1.272829677e-06       -0.00289679697      1.547240495e-17 
                   1                    1          14.92721028        0.01120533526       0.001497523605      0.0001158003995      1.135357023e-16      4.952122641e-72     9.871420796e-142       0.006102143961      0.0002813947295       0.005793466154      0.0003388159762       0.004100355514      5.055969689e-07      -0.001889758215      1.707726159e-18 
                   0                    8          -4.20239529         0.9092325462         0.1968793749        0.07160755061      3.252824998e-08      4.514180833e-39      3.503902196e-78           1.58958226          1.305719666          1.322546386         0.3010859075         0.7456899821       0.009419581836         0.2627144529      3.328737364e-06 
                   1                    1            1.2125218                   -0                   -0                   -0                   -0                   -0                   -0     -0.0005653758106        0.01565890813     -0.0007499374647      0.0003091487668       -0.01263538666      0.0008410776641       -0.06216104905      5.017290956e-07 
                   1                    1          15.04696444                   -0                   -0                   -0                   -0                   -0                   -0      -0.007650681134        0.05905589151      -0.008932073604       0.001415308858       -0.02408757386      0.0001129453806         -0.182970361     -1.969952654e-08 
                   0                    9          -3.57645231         0.8470371645         0.2158855289         0.1154164798      1.517508092e-06      5.360062398e-31      4.192017184e-62          2.075813107           1.78202152          1.624814553          0.513623577         0.7987229883        0.03908867799         0.2570346072       0.002029686887 
                   1                    2           0.09249854         0.2610584448        0.06653632543        0.03557157583      4.676988439e-07      1.651981297e-31      1.291987569e-62         0.6398276993         0.5640562682         0.5027887127          0.156273424         0.3142547464       0.005764639111        -0.1439824175     -0.0002922369051 
                   1                    1          15.01026798       0.008553323061        0.00217999723       0.001165467679       1.53236924e-08      5.412554164e-33      4.233070137e-64        0.01496332143         0.0142938549       0.009091188719       0.006702761282       -0.01033611396      0.0007733753693        0.01682344577     -4.063090936e-06 
                   0                   10          -2.18976069         0.5104973382         0.2175881875         0.2654113457       0.005353912849       1.95265201e-13       4.95982737e-27          2.935954037          2.920521086          1.778271751          1.400703745         0.3114337272         0.3702230543         -0.188732045         0.1629836427 
                   1                    3           0.05237715          0.263531112         0.1123243017         0.1370117763       0.002763819713      1.008006344e-13      2.560383228e-27          1.547110377          1.410928521          0.903395636         0.7274485678         0.6297336021          0.061814463         0.4447609388       -0.06402848635 
                   1                    1          15.08592171      -0.008849286755      -0.003771812547      -0.004600809702     -9.280814319e-05     -3.384851649e-15     -8.597681393e-29       -0.09830246285       -0.03447997999        -0.1115354985       0.003162319142        -0.1998852135      -0.006348398622        -0.1174819849        -0.0421607488 
                   0                   11          -1.35848543         0.2170233962         0.1742488225          0.329936026         0.3533294897      0.0005218506266       4.26028959e-08          2.731481998          3.074440958         0.8465418859          2.274779197        -0.1050466028         0.6365303838        -0.1120871359         0.1215087054 
                   1                    4           1.19216997       0.003119026477       0.002504276962       0.004741789222       0.005077996442      7.499955998e-06      6.122821902e-10      -0.002046764828        0.08328591106       -0.02019433402        0.06401274152        -0.1222360054         0.1120690895        -0.2575956621         0.1137400503 
                   1                    1          14.92721028        0.01835296363        0.01473565689        0.02790161794        0.02987992718      4.413121231e-05      3.602788514e-09         0.1349884186      0.0007113326967         0.1828253421         0.1189077279         0.5975457122         0.2363486986          0.690340056         0.6535351766 
                   0                    1           0.68354789       -0.08793852464        -0.0785572258        -0.1543826343        -0.2317354621      -0.001518952708     -7.984572269e-07          -1.25073628         -1.383507526        -0.3312411424         -1.092631502        0.03700387442        -0.5183300394        -0.0451491247       -0.01136973093 
                   1                    2           0.09249854         0.1573517017         0.1405653917         0.2762426401         0.4146529573       0.002717919072      1.428709475e-06          2.169053771          2.552988384         0.5812168797          1.973088753        -0.1108478862         0.5259980542        -0.1244063043         0.2534127774 
                   1                    1          15.01026798       0.005155473669        0.00460548674       0.009050818277        0.01358569612      8.904994395e-05      4.681026008e-08        -0.2242197613         -0.398865029      -0.007756482507        0.06382460839         0.2050201821         0.1505044014         0.3555923441         0.6022909473 
                   0                    2           2.07023951        -0.4384090301        -0.2061035834         -0.278086294       -0.01390448501     -2.771398153e-11     -1.044668642e-22         -2.895465409         -2.812314249          -1.68508842         -1.469897329        -0.6436441636        -0.3067740165        -0.2752890381        -0.1335478433 
                   1                    3           0.05237715         0.2527124848         0.1188044614         0.1602975156       0.008014973951      1.597519361e-11      6.021792214e-23          1.665176044          1.806026948         0.9289646381         0.8894699323        -0.1413577246         0.3863885373        -0.4543778074        0.06759082626 
                   1                    1          15.08592171      -0.008486000865      -0.003989414147      -0.005382737054     -0.0002691401492     -5.364416678e-13      -2.02209772e-24       -0.02702084808        0.09990053141        -0.1148793097      -0.005277185255        -0.1745917739        0.01825716686        -0.1797977117       -0.05972031391 
                   0                    3           2.90151477        -0.6742342747        -0.2497367554        -0.2563348813      -0.001099579225     -4.378288268e-17     -2.212126523e-34         -3.154722999         -3.035734064         -2.099172374         -1.278416518        -0.5174806205        -0.3834495497        -0.0490770424        -0.1753008609 
                   1                    4           1.19216997       0.004825012751       0.001787187443       0.001834405514      7.868902516e-06      3.133227947e-19      1.583060827e-36        0.01135264249        0.01735248162       0.002128228293        0.02175082464       -0.07205591914        0.01049849306        -0.0194704823        0.05416158188 
                   1                    1          14.92721028        0.02839132152         0.0105161615        0.01079400189      4.630216599e-05      1.843652787e-18      9.315040443e-36        0.09836098398       -0.02211565211          0.128133286        0.03455040909         0.1267209966        0.05562733945          0.176722963         0.3146344888 
                   0                    4           4.31760511        -0.9092325462        -0.1968793749       -0.07160755061     -3.252824998e-08     -4.514180833e-39     -3.503902196e-78         -1.587199271         -1.328387952         -1.322926577        -0.3046693094        -0.5841629066        -0.0371287668        -0.2336850396       -0.03079182854 
                   1                    1            1.2125218                   -0                   -0                   -0                   -0                   -0                   -0     -0.0007042821053        0.02073786161       -0.00217416883       0.002082145455       -0.01344918281      8.614436252e-05       -0.03046907731        0.00144276836 
                   1                    1          15.04696444                   -0                   -0                   -0                   -0                   -0                   -0      -0.009888370388        0.09415738692      -0.007597087315      0.0003948981173       -0.01334317351      0.0004857517424        -0.1048209065       0.008489532046 
                   0                    5           4.94354809        -0.7774908072        -0.1300397689       -0.02236504029     -1.666170848e-11     -1.686714862e-54    -9.064117697e-109        -0.7361701868         -0.597853723         -0.655643709       -0.08901503289        -0.3631162025      -0.001238413468       -0.05784382185     -0.0002633178218 
                   1                    2           0.09249854         0.1782271624        0.02980950873        0.00512682289      3.819426539e-12       3.86652036e-55     2.077802029e-109         0.1683439816         0.1337719431         0.1486687704        0.02171994795        0.07570641525      0.0002351322053         0.0583907193      7.859616009e-05 
                   1                    1          15.01026798       0.005839437598      0.0009766792207      0.0001679753071      1.251397522e-13      1.266827349e-56     6.807713889e-111       0.004522478604       0.004357921325       0.003856761095      0.0007323197078       0.001088572497     -8.414098557e-06      -0.004441748262      8.870025338e-06 
                   0                    6           6.33023971       -0.08849853449       -0.00930639302      -0.000255356464      -5.21826439e-20     -2.909798256e-90    -2.254790359e-178       -0.01947119466       -0.01449908343       -0.01854058316      -0.001017476584       -0.01325715903     -6.865026873e-09      -0.004619024733     -1.218013429e-44 
                   1                    3           0.05237715        0.01636809803       0.001721248314      4.722902655e-05       9.65135339e-21      5.381768565e-91     4.170309695e-179       0.003604755248       0.002689493978       0.003431091017      0.0001898562576       0.002446181272      9.242246629e-10       0.001045667893      5.923383821e-45 
                   1                    1          15.08592171     -0.0005496352669     -5.779894369e-05     -1.585934943e-06     -3.240892244e-22     -1.807179916e-92    -1.400376072e-180     -0.0001329943484     -8.370512678e-05     -0.0001279581825     -5.510253166e-06     -0.0001017363754     -3.938710846e-11     -8.232717677e-05     -7.483315866e-47 
                   0                   33          -5.61848563         0.2073796775        0.02330980938      0.0008723571028      2.375178286e-18      2.893244645e-84      4.43692471e-167        0.05920504933        0.04332488433        0.05615745621       0.003333819781        0.03955661348      9.026778928e-08        0.02070878498      4.100203605e-34 
                   1                    4           3.66896997       -0.08974793929       -0.01008781276     -0.0003775309773     -1.027908613e-18     -1.252112782e-84    -1.920172962e-167       -0.02566518577       -0.01860282722       -0.02436898919      -0.001417437432       -0.01716247637     -2.906817597e-08      -0.007861679105     -4.396412624e-34 