ITEM: TIMESTEP
0
ITEM: NUMBER OF ATOMS
4
ITEM: BOX BOUNDS pp pp pp
0.0000000000000000e+00 4.2600002000000003e+00
0.0000000000000000e+00 2.4767999999999999e+00
0.0000000000000000e+00 3.0000000000000000e+01
ITEM: ATOMS id type c_1[1] c_1[2] c_1[3] c_1[4] c_1[5] c_1[6] c_1[7] c_1[8] c_1[9] c_1[10] c_1[11] c_1[12] c_1[13] c_1[14] c_1[15] c_1[16] c_1[17] c_1[18] c_1[19] c_1[20] 
1 1          13.95413841          12.59409313           6.13906316          1.279341798         0.6352330863         0.4245997416      0.0003028394381      4.547434358e-08          49.35171228          45.94268847          41.12972446          23.65299498          21.29169713          4.410001582          15.16079872          2.670536098          5.052292059          1.006928558          3.269614204         0.8571029824 
2 1          13.95827942          12.59861615          6.119520012          1.214997514         0.5769509502         0.3747414559      0.0001884163724      2.601114081e-08          49.37815331          45.85368771          41.26747997          23.43350204           21.5474203          4.261778396            15.426404          2.530156103          5.234404064         0.9369866539          3.426031305          0.795081806 
3 1          13.97297969          12.61400512          6.086865233           1.10314826          0.487288098         0.3026069729       5.73475324e-05      1.752516215e-09          49.38237023          45.81204049          41.47708176          23.20319295          21.73448211          4.114332261          15.50556569          2.492880112          5.158205127         0.9434371329          3.209037012         0.7986818551 
4 1          13.96064342          12.60088844          6.108492609           1.18341593         0.5524112507         0.3556983109      0.0001717706037      2.121571898e-08          49.38921897          45.89329363          41.31986432          23.43834163          21.42924391          4.254333419          15.20169443          2.610444896          4.930747617         0.9246892096          3.021159261         0.6688861682 
