ITEM: TIMESTEP
0
ITEM: NUMBER OF ENTRIES
582
ITEM: BOX BOUNDS pp pp pp
0 4.26
0 2.4768
0 30
ITEM: ENTRIES c_2[1] c_2[2] c_2[3] c_2[4] c_2[5] c_2[6] c_2[7] c_2[8] c_2[9] c_2[10] c_2[11] c_2[12] c_2[13] c_2[14] c_2[15] c_2[16] c_2[17] c_2[18] c_2[19] c_2[20] c_2[21] c_2[22] c_2[23] 
                   0                   99           0.77398487       -0.01938048909      -0.002124739389     -7.095629808e-05     -1.698582676e-11     -1.685139202e-16      -7.58883009e-20     -2.339123214e-87    -3.884967771e-172      -0.005003295109      -0.004120862993      -0.004872389387        -0.0009371521      -0.003935281067     -3.435511368e-07      -0.003337450321      5.349887417e-10      -0.002233159796     -4.220475252e-25      -0.002161364978     -4.042132925e-43 
                   1                    2          -4.96074303         0.1750371194        0.01918982852      0.0006408499789      1.534094509e-10       1.52195288e-15      6.853939304e-19      2.112606073e-86      3.50875339e-171        0.04552972281        0.03726775308        0.04439537296       0.008376521977        0.03620326912      3.299829385e-06        0.03095517989      9.557734577e-09        0.01950231749      4.757290661e-24        0.01618139781      9.927483959e-43 
                   1                    1          14.97591107       0.002156383612      0.0002364106074      7.895001909e-06      1.889939841e-12      1.874981866e-17      8.443764636e-21       2.60264173e-88     4.322636439e-173      0.0005445131647      0.0004467790609      0.0005309457612      9.862619833e-05       0.000432945217      4.691737786e-08      0.0003700379995      1.641265558e-10       0.000255668356       5.95027797e-26      0.0002427722665      9.715777824e-45 
                   0                   77          -3.48601533         0.5159652412         0.0817186083        0.01172765706      6.975498165e-07      3.328822149e-10      1.908211583e-12      2.672102423e-58     3.867088606e-116         0.4253796295          0.369868319         0.4032614214         0.1206923016         0.2747021053      0.0005219156203          0.211531606      2.078217823e-05        0.09753468705      1.924909038e-14        0.06311178752     -8.349276031e-25 
                   1                    2          -2.48394303          0.540805844        0.08565286458        0.01229227275      7.311326173e-07      3.489084783e-10      2.000080419e-12      2.800747978e-58     4.053265511e-116         0.4480161887          0.391330202         0.4254871905         0.1256114916          0.297444429      0.0005308254162         0.2347012998      1.938409951e-05        0.08364428246      9.116141483e-14        0.02122632444      3.418586626e-24 
                   1                    1          14.97591107        0.01107089476       0.001753409029      0.0002516364412      1.496709467e-08      7.142543091e-12      4.094386197e-14      5.733441394e-60     8.297483545e-118       0.008247008531       0.007281023959       0.007821208984       0.002522433408       0.005160201354      1.245172168e-05       0.003456983722      3.355582767e-07       0.000232811665       4.27172052e-15      0.0009110986858      2.201096238e-25 
                   0                   79          -1.50542911         0.2084482908        0.03149029637       0.003837255631      1.225926004e-07        3.7402146e-11       1.59421904e-13      6.205624418e-62     5.791047084e-123         0.1505698003         0.1323376687         0.1432590182         0.0425716293         0.1004299211      9.557839769e-05        0.07898413394      4.936364698e-07        0.01875331442      6.761188005e-15      -0.006549483885      2.275512272e-25 
                   1                    4          -3.81121977         0.6644426634         0.1003773949        0.01223150519      3.907719924e-07      1.192218051e-10      5.081678247e-13      1.978083678e-61      1.84593442e-122         0.4803368985         0.4187937608         0.4567669684         0.1347666516         0.3147443214      0.0003487590176         0.2430369928      8.333777773e-06        0.09508594978       1.35216949e-14         0.0435866015      1.778685209e-25 
                   1                    1          15.07379487      -0.002785332078     -0.0004207802918     -5.127425684e-05     -1.638109389e-09     -4.997757316e-13     -2.130230675e-15     -8.292092341e-64    -7.738124955e-125      -0.004540401009      -0.003613663551       -0.00449854844     -0.0005354680552      -0.004130750848     -1.672220866e-06      -0.003750821764     -9.799159355e-08      -0.002886309794      7.864851021e-17      -0.002312667239      8.480889955e-27 
                   0                   68           0.08528851                   -0                   -0                   -0                   -0                   -0                   -0                   -0                   -0      0.0005147839145      -0.005472891484       0.001408001099      -0.008240333954        0.01130939775      0.0004298352277         0.0164544067      8.137910576e-05        0.03723650529     -3.993858046e-05        0.04593635776     -3.138259359e-06 
                   1                    1          -3.69430253         0.8137120297         0.1388539779        0.02547174737      3.870552671e-06      3.640260861e-09      3.272168883e-11      3.518983774e-53     3.615938187e-106         0.8150651757          0.597166691         0.7664710037         0.2291285303         0.5230920559       0.005151012103         0.4130428791       0.002649395798         0.2191508564      0.0001701138342         0.1866595015      5.574356192e-06 
                   1                    1          15.05253935                   -0                   -0                   -0                   -0                   -0                   -0                   -0                   -0       -0.00430612283      -0.002852546545      -0.004456287909        0.00047187287      -0.005278636983     -2.244168213e-05      -0.005605743315     -8.270930604e-06      -0.005330689596      4.443793963e-06      -0.005471026045      3.491806126e-07 
                   0                   69           0.77398487        -0.1604398328        -0.0408330956       -0.02176264505     -0.0002102906647     -4.119827719e-06     -2.784535999e-07     -8.727832771e-32     -5.879365927e-63         -0.387950951        -0.3409896718        -0.3343922389        -0.1719513304        -0.1349165754       -0.02252434232       -0.06725267368       -0.01940180238        -0.1124435471      -0.001881134816         -0.308989381      -0.001382784461 
                   1                    2          -2.48394303         0.8720314422         0.2219382968         0.1182855305       0.001142983438       2.23923152e-05      1.513466388e-06      4.743799881e-31      3.195585447e-62          2.156593495           1.96143916          1.884623078         0.8808746633          1.099464492         0.1010107035         0.8507702263        0.04432565812         0.3489250251       0.005562182626         0.1340670692       0.003486645603 
                   1                    1          14.97591107        0.01785144971       0.004543322812       0.002421435853      2.339813723e-05      4.583954995e-07      3.098233367e-08        9.7110839e-33      6.541717434e-64        0.03723129514        0.03120369694        0.03229680868        0.01356428654        0.01858273689       0.002780353257        0.01439916457          0.002274112        0.01901845759      0.0002098508866        0.03750349066      0.0001538565438 
                   0                   71           2.75457109        -0.2344912928       -0.03078298352      -0.002219024743     -9.798275585e-09     -7.304502276e-13     -1.227428258e-15     -4.762100837e-72    -4.652314159e-143        -0.1124835047       -0.09480271694        -0.1090519757        -0.0237414811       -0.08621283504     -3.500171321e-05       -0.07235423872     -6.248921662e-07       -0.03676426256     -3.665439319e-18       -0.02623261736     -8.857922036e-32 
                   1                    4          -3.81121977         0.4454350962         0.0584747564       0.004215216216      1.861261361e-08      1.387549036e-12       2.33159883e-15      9.045994071e-72     8.837445435e-143         0.2141239197         0.1765916196         0.2076707032        0.04402053073           0.16413113      6.356757297e-05         0.1372103137      1.375845016e-06        0.07127635894      4.844670226e-18        0.05609711176      4.279877781e-32 
                   1                    1          15.07379487      -0.001867256169     -0.0002451251609       -1.7670113e-05     -7.802375223e-11     -5.816581406e-15     -9.774021707e-18     -3.792064967e-74    -3.704641742e-145      -0.001772222984       0.002423189309      -0.001793934038       0.001272231848      -0.002076610041     -8.927224208e-07      -0.002396276648     -1.962997138e-08      -0.004763285135      5.492870423e-20      -0.007882045142      3.150848309e-33 
                   0                   73           5.03398507        -0.1696911606        -0.0189466586     -0.0006879536403     -2.277283403e-10     -2.817494556e-15     -1.463250346e-18     -6.698799874e-85    -3.072692891e-168        -0.0476131564       -0.03952107724       -0.04639918586      -0.009189531407       -0.03756282878     -3.435367434e-06        -0.0318020328     -8.110944525e-09       -0.01843586543     -9.193942082e-29        -0.0139939318     -8.780381703e-54 
                   1                    2          -2.48394303         0.1283559857         0.0143314303       0.000520374587      1.722558528e-10      2.131179312e-15      1.106816288e-18      5.067035064e-85     2.324213726e-168         0.0359252386        0.02977546522        0.03500022111       0.006931601527         0.0283076346      2.749467414e-06        0.02395375633      4.806601086e-09        0.01398296985     -1.889878179e-29        0.01100374199     -5.131865878e-54 
                   1                    1          14.97591107       0.002627589226      0.0002933802554       1.06526443e-05      3.526268142e-12      4.362760155e-17      2.265775561e-20      1.037278213e-86     4.757922987e-170       0.000707959798      0.0006155167156      0.0006876578829      0.0001641870355      0.0005344166043      5.516188155e-08       0.000427212229      1.856791466e-10       0.000145969932      4.876379049e-30      3.004959734e-05      5.965469686e-55 
                   0                   50          -5.76542931          0.068378073       0.007138978855      0.0001891914516      1.800398999e-11      9.504999065e-17      2.855231728e-20      5.148170137e-91     1.039819049e-179        0.01515022374        0.01236113483        0.01481297082       0.002641112351        0.01231990475      7.500737416e-07        0.01065417502      1.075255823e-09       0.006696633525      6.761979584e-31       0.005480496607       2.21613041e-57 
                   1                    4          -1.33441977         0.0303130987       0.003164824061      8.387161111e-05      7.981458117e-12      4.213718846e-17      1.265770113e-20      2.282266561e-91      4.60968496e-180       0.006718360155       0.005478838019       0.006568869996       0.001171412486         0.0054622027      3.187879327e-07       0.004724353422      5.211753752e-10       0.002965860776      7.712875633e-31       0.002389178755      5.603561276e-57 
                   1                    1          15.07379487     -0.0002484159282     -2.593574199e-05     -6.873280864e-07     -6.540807148e-14     -3.453143767e-19      -1.03729896e-22     -1.870318082e-93    -3.777638108e-182     -6.552260481e-05     -3.872057468e-05     -6.463815995e-05     -1.281486233e-06     -5.885695331e-05      -1.90332809e-09     -5.649882181e-05     -3.192104693e-12     -7.252760044e-05     -2.456609844e-33     -9.911981738e-05     -8.051149567e-60 
                   0                   42          -4.17471169         0.7091767466         0.1220831632        0.02302895094      3.894688774e-06      3.958702083e-09       3.74652031e-11      1.123147344e-52     4.151769392e-105         0.7293958376         0.6305236018         0.6860899653         0.2089086651         0.4733210758       0.004953980068         0.3771149261       0.002582394199         0.1741333795      0.0001745422111         0.1257112441      5.961700389e-06 
                   1                    1          -1.21750253         0.4123213341        0.07098017947        0.01338922606       2.26440486e-06      2.301622737e-09      2.178258467e-11      6.530073264e-53     2.413873696e-105         0.4256048467          0.355831394         0.4010702696         0.1113160683         0.2865519529       0.003451509858         0.2360110133       0.001587071863         0.1508076662      4.667603386e-05         0.1394065903     -2.447092928e-07 
                   1                    1          15.05253935                   -0                   -0                   -0                   -0                   -0                   -0                   -0                   -0      -0.004694356513        0.01787782426      -0.004862720998       0.008630006075      -0.006735183963     -1.122441944e-05      -0.009255417623     -6.184790976e-06       -0.03142856931      5.184981275e-06       -0.05526767854      3.510844035e-07 
                   0                   43          -3.48601533         0.8338189545         0.2135217876         0.1153214518       0.001174378457      2.391318194e-05      1.658308666e-06      8.677677385e-31      1.109024109e-61          2.079757685          1.883112506           1.80736311         0.8552604341          1.044074116         0.1097075825         0.8092173801        0.05391610778         0.3929391458       0.007306571515         0.2828601138       0.003857557207 
                   1                    2          -0.00714303          0.295685313         0.0757181835        0.04089480024      0.0004164530679      8.479990348e-06      5.880623296e-07      3.077240856e-31      3.932773883e-62         0.7432023547         0.6853832453         0.6482534788         0.2990506783         0.4155015974        0.03542696719         0.3425281486       0.007399397037         0.1356653796       0.001437536658        -0.1125718519      0.0002709284931 
                   1                    1          14.97591107        0.01789097629       0.004581466059       0.002474414079      2.519824839e-05      5.130972002e-07       3.55817781e-08      1.861940407e-32      2.379596186e-63        0.03789443953        0.03840141334        0.03303175568        0.01712018859        0.02186969912       0.003217793861        0.01805473039       0.002357006631       -0.01086884106      0.0004769360881       -0.04340570125      0.0004957552635 
                   0                   44           -2.0897686          0.459892264        0.09834240296        0.03463022678      6.568303389e-05      3.892887771e-07      1.188237585e-08      4.831322139e-40      8.090357121e-80         0.7826312336         0.7271615808         0.7075974091         0.3036180993         0.3972968028         0.0220548875         0.2710676835        0.01821061056        0.09447989646        0.01684516433         0.0640212879        0.01576158881 
                   1                    3          -2.44245091         0.7826945948         0.1673697804        0.05893748045      0.0001117865196      6.625339138e-07      2.022271753e-08      8.222468651e-40      1.376904828e-79            1.3369182          1.180143415          1.210427437         0.4912898068         0.6990341964        0.03769453303         0.4925584347        0.03086538625           0.21865672         0.0273310435         0.2012859832        0.02425866914 
                   1                    1          14.90934898        0.03027605259       0.006474167966       0.002279809097      4.324106196e-06      2.562801858e-08      7.822515493e-10      3.180600645e-41      5.326118677e-81        0.05327270154       -0.01473625083        0.05040665305      -0.003367982854        0.03841910471        0.00146856156        0.03550147441       0.001686149972        0.06000264512        0.00537382169         0.1003961535         0.0092177541 
                   0                   45          -1.50542911         0.3824870478         0.1305404697         0.1191336365       0.009769467124      0.0009263972616      0.0001787858499      6.985897004e-20       1.09202376e-39          1.552841943          1.512023616          1.242253874         0.8965670828         0.4766165176         0.2190340981         0.2356227285         0.1803467292         0.0248109811         0.1567113741        0.05788013383         0.1848071972 
                   1                    4          -1.33441977         0.6236576735         0.2128505164         0.1942513008        0.01592943649       0.001510521112      0.0002915161908      1.139073414e-19      1.780580548e-39          2.605343649          2.528995215          2.054668107          1.450474382         0.8634673103         0.3584023836          0.515857671         0.2846653096        0.09075091767         0.1847807406        0.03906053588         0.1495477454 
                   1                    1          15.07379487       -0.00511087637      -0.001744310574      -0.001591889951     -0.0001305417764     -1.237872472e-05     -2.388975995e-06     -9.334709795e-22     -1.459186255e-41        -0.1228718546        0.03136662981       -0.08938446902        0.01961573944       -0.07261142814       0.002002356471       -0.07642117931       0.009059605512       -0.08635856444        0.05908718195        -0.1339177738         0.1156854316 
                   0                   34           0.08528851                   -0                   -0                   -0                   -0                   -0                   -0                   -0                   -0         0.0256509328       -0.09174411057        0.05433371605         -0.160148645         0.3010921274       -0.08716544888         0.4690764605        -0.1599334504         0.5668103772       -0.06027568686         0.5694628601      -0.005960301363 
                   1                    1          -1.21750253         0.5572350607         0.2433932895         0.3048959963        0.08916197783        0.02165100651       0.007813167168      8.180428237e-13      7.761829956e-26          3.301910192          3.376523538          2.469817436          2.199326694          0.870702171         0.6464544143         0.5283285558         0.4311121179        0.07438042877         0.1680363334         0.0311354586         0.1519456857 
                   1                    1          15.05253935                   -0                   -0                   -0                   -0                   -0                   -0                   -0                   -0       -0.06189257056       -0.03621837342       -0.07132121952        0.01807123165       -0.09383778397        0.01566331818        -0.1035800399        0.02181121366       -0.07684383911       0.007096293009       -0.06618028151      0.0006725539057 
                   0                   35           0.77398487        -0.1069291527       -0.08445589367        -0.1588963403        -0.2406719567        -0.1976825681        -0.1605732008     -0.0001835990839     -1.088507335e-08         -1.416325429         -1.686619306        -0.6939339865         -1.348896577        0.09994658884        -0.5946190995        0.09322424094         -0.386354089         0.0398977689        0.08470021341         0.1787636484          0.357502153 
                   1                    2          -0.00714303         0.1966315163          0.155305546         0.2921937335         0.4425705302         0.3635175456         0.2952773044      0.0003376194926      2.001651022e-08          2.502396892          2.615227147          1.375056153          2.254875027         0.1195980658         0.8460161953       0.006293241392         0.5187612683       -0.08534510529         0.3079521339       0.007290861683         0.3980515096 
                   1                    1          14.97591107        0.01189754662       0.009397043812        0.01767971194        0.02677853283        0.02199528858        0.01786628899       2.04282799e-05      1.211135265e-09        0.06188082429        -0.2215759475      -0.002962721927       -0.01560171711         0.1678548148         0.1719696271         0.2209960091         0.1724826426         0.2901258206         0.1836204486         0.2665553234         0.2724307743 
                   0                   36            2.1702316        -0.4460308219       -0.09688763367       -0.03552689763     -7.893225269e-05     -5.253120929e-07     -1.731855401e-08     -3.273180363e-39     -3.737021227e-78        -0.7939379744         -0.613939709        -0.7188333544        -0.2562494107        -0.4673584446       -0.01877983627        -0.3779899801      -0.004311705271        -0.1930550131     -1.747646818e-07        -0.1681528674     -2.830095247e-13 
                   1                    3          -2.44245091         0.7919131607         0.1720208301        0.06307684675      0.0001401416374      9.326744689e-07      3.074852717e-08       5.81142486e-39      6.634959169e-78          1.417761377          1.263047284          1.286408551         0.4826106846         0.8402555557        0.03170025336         0.6700663129       0.005840456076         0.3334303288     -2.239115749e-08         0.2668132067     -9.928287282e-14 
                   1                    1          14.90934898        0.03063264351       0.006654079039       0.002439927325        5.4209338e-06       3.60775473e-08      1.189409039e-09       2.24796499e-40      2.566523061e-79        0.05798691822         0.1520338645        0.05362189105        0.03408437814        0.03918022996        0.00151073087        0.03234369036      0.0004163638461       0.004490553748      1.682094626e-08       -0.02577172129      2.676487496e-14 
                   0                   37           2.75457109        -0.6283525622        -0.1649688563       -0.09394227481      -0.001179412733     -2.801627184e-05     -2.152519121e-06     -8.707729708e-30     -1.433042885e-59         -1.657229407         -1.510298392         -1.442828119          -0.68000239        -0.8671879112        -0.0754814113        -0.6814466824       -0.02336857249        -0.2361427095      -0.003263665185       -0.02386899336       -0.00107011726 
                   1                    4          -1.33441977         0.6105643837         0.1602987146        0.09128284115       0.001146024464       2.72231527e-05      2.091582958e-06      8.461220567e-30      1.392474541e-59          1.614508948          1.473491031          1.407157019         0.6804972089         0.7796108938        0.07188044968         0.5713614099        0.03112477937         0.2215971996       0.004260221464         0.1561843798       0.002282657063 
                   1                    1          15.07379487      -0.005003576824      -0.001313648413     -0.0007480631372     -9.391673671e-06     -2.230938121e-07     -1.714052816e-08      -6.93397261e-32     -1.141133274e-61       -0.04068904385       -0.01939414057       -0.04166148141        0.01470428527       -0.06004937035     -0.0002452062253        -0.0823392548     -0.0003609893025        -0.1472896869      0.0001277259242         -0.113684253      0.0001730365087 
                   0                   38           4.34528871        -0.7091767466        -0.1220831632       -0.02302895094     -3.894688774e-06     -3.958702083e-09      -3.74652031e-11     -1.123147344e-52    -4.151769392e-105         -0.733953803        -0.6287842772        -0.6921239357        -0.2051540912        -0.4795886435      -0.003562944701        -0.3795605028      -0.001163125286        -0.1934908098     -2.508218005e-05        -0.1573617072     -2.157551567e-07 
                   1                    1          -1.21750253         0.4123213341        0.07098017947        0.01338922606       2.26440486e-06      2.301622737e-09      2.178258467e-11      6.530073264e-53     2.413873696e-105         0.4271202768         0.3718283438         0.4016005451         0.1273268715         0.2678723611       0.001436109085         0.2078425469       0.000540710334        0.08205947311      1.963033509e-05        0.05411037932      2.782757143e-07 
                   1                    1          15.05253935                   -0                   -0                   -0                   -0                   -0                   -0                   -0                   -0       -0.00485705305        0.01771985698      -0.005174508237       0.008748151257      -0.007603773184      2.426375383e-05      -0.009953224795      3.595475906e-06       -0.02764228503     -1.029819735e-07       -0.05060987411     -3.118299512e-09 
                   0                   39           5.03398507        -0.7449085681        -0.1206135532       -0.01864484686     -1.472085986e-06     -8.618932763e-10     -5.657816059e-12     -1.171894992e-56    -4.899572444e-113        -0.6598739182        -0.5765761908        -0.6242632846        -0.1907392494        -0.4240842965     -0.0008137735948        -0.3309731906     -2.795041075e-05         -0.136849512     -1.870646862e-13         -0.058864686     -1.298411576e-23 
                   1                    2          -0.00714303         0.1906324964         0.0308666912       0.004771476466      3.767273441e-07      2.205705156e-10      1.447914074e-12      2.999042801e-57     1.253868953e-113         0.1677774953          0.144794052         0.1582769106        0.04861937069         0.1035177133      0.0002205827654        0.07862672049      1.043892079e-05         0.0514985556     -5.996412729e-14        0.04816356962     -1.235447955e-23 
                   1                    1          14.97591107        0.01153456504       0.001867645149      0.0002887068399      2.279457141e-08       1.33460192e-11      8.760866784e-14      1.814625255e-58     7.586761575e-115       0.008953758611       0.007660236543       0.008354549817       0.002662835866       0.005374001546      1.807910856e-05       0.004343410912      5.122642153e-07       0.003095338349      2.896610247e-15       0.003625274786      2.010530341e-25 
                   0                   16          -5.76542931         0.4356651275        0.05488160264       0.003351500584      7.939974488e-09      3.822425223e-13      4.817484145e-16      6.506445632e-75     5.512228632e-149         0.1860766171         0.1528184842         0.1806884882        0.03789444958         0.1429705087      3.331976004e-05         0.1189132234      5.607168311e-07         0.0608997394      5.787853316e-19         0.0488582129      1.117622112e-33 
                   1                    4           1.14238023        0.00870607092        0.00109672107      6.697437993e-05      1.586676937e-10      7.638505581e-15       9.62697172e-18      1.300209118e-76     1.101530748e-150        0.00369261556       0.001144920116       0.003583264755      0.0008571771272       0.002647031259     -2.836987109e-07       0.001861838474      1.235151369e-08      -0.000530532548      4.630026595e-20      -0.001215906773     -3.742449866e-34 
                   1                    1          15.07379487      -0.001582761144     -0.0001993835694     -1.217592266e-05     -2.884574025e-11     -1.388678078e-15      -1.75018064e-18     -2.363776369e-77    -2.002579675e-151      -0.001302972389     -0.0006498281615      -0.001308405238     -7.206995878e-05      -0.001344752025     -1.136275958e-07      -0.001329032673     -1.996438393e-09      -0.000594866857     -2.102713474e-21     -7.187080658e-05     -4.060294803e-36 
                   0                    8          -4.17471169         0.9092325462         0.1968793749        0.07160755061      0.0001541166679      1.002058221e-06      3.252824998e-08      4.514180833e-39      3.503902196e-78          1.608270382          1.414472717          1.456406489         0.5524068586         0.9467371031        0.03986974032         0.7488764073       0.008627885939          0.349100899      3.833872783e-05         0.2699244956      9.816998149e-07 
                   1                    1           1.25929747                   -0                   -0                   -0                   -0                   -0                   -0                   -0                   -0     -2.100954572e-05        0.05369158774     -0.0002996145769        0.02533929029      -0.007801338086     -0.0002294767159       -0.01963959076     -0.0002329248444       -0.08878479453     -5.853972453e-07        -0.1637150982     -7.847952849e-09 
                   1                    1          15.05253935                   -0                   -0                   -0                   -0                   -0                   -0                   -0                   -0       -0.01251698819       -0.01829511244       -0.01309753061      -0.002140456761       -0.01795608918      0.0002757941291       -0.01996510104      0.0001957566996       0.004198546964     -5.978023705e-07        0.02677749269     -9.271706581e-09 
                   0                    9          -3.48601533         0.8357632028         0.2154611908         0.1180565697       0.001272627197      2.702205372e-05      1.926831327e-06      1.757888309e-30       4.49950287e-61          2.112699251          1.925942324           1.83266043         0.8916450889          1.029375918         0.1095251772         0.7622486848        0.05143065081         0.3225554968       0.008584313718         0.2471577294       0.004615250939 