ITEM: TIMESTEP
0
ITEM: NUMBER OF ENTRIES
576
ITEM: BOX BOUNDS pp pp pp
0 4.26
0 2.4768
0 30
ITEM: ENTRIES c_2[1] c_2[2] c_2[3] c_2[4] c_2[5] c_2[6] c_2[7] c_2[8] c_2[9] c_2[10] c_2[11] c_2[12] c_2[13] c_2[14] c_2[15] c_2[16] c_2[17] 
                   0                   99           0.64411195       -0.01489561475      -0.001613099077     -5.087857411e-05     -3.387599462e-20     -1.665957743e-88    -2.925111514e-174      -0.003697735147        -0.0026888206      -0.003517430768     -0.0001972474581      -0.002532923432     -9.856112197e-11      -0.001643423522      2.005882384e-55 
                   1                    2          -4.96277761         0.1503179764        0.01627846806      0.0005134373054      3.418570528e-19      1.681188731e-87     2.951854293e-173        0.03750648239        0.02705062745        0.03575119889       0.001919411826        0.02603754763      3.990843482e-09         0.0141141592      1.371146843e-55 
                   1                    1          14.95044865       0.001613213892      0.0001747006675       5.51021384e-06      3.668813006e-21      1.804253278e-89     3.167932717e-175      0.0003827556154      0.0002768687406       0.000363845256      2.068547965e-05      0.0002630184066       5.26122658e-11      0.0001792608535      6.539193948e-57 
                   0                   77          -3.61588825         0.4988297635        0.07695073291        0.01008875834      7.710300819e-13       4.14237427e-60     1.023462049e-119         0.3810039852         0.3048901438         0.3444270255        0.04019535491         0.1921266995      1.460858115e-05        0.05450384904     -3.032794236e-25 
                   1                    2          -2.48597761         0.5189760429         0.0800585486        0.01049621386      8.021697384e-13      4.309672686e-60     1.064796697e-119         0.3976050213         0.3202271954         0.3604595386        0.04083503414         0.2091936782      1.162203957e-05        0.01902820201      1.327490449e-24 
                   1                    1          14.95044865       0.009212992287       0.001421219343      0.0001863314091      1.424031747e-14      7.650638553e-62     1.890253681e-121       0.005488259941       0.005098915748       0.004689777575      0.0008773387051       0.001155681174      1.902609779e-07      -0.002965027745       4.68956394e-26 
                   0                   79          -1.51545441         0.2104929425        0.03243861995       0.004238141837      3.146285941e-13      1.491494053e-60     3.152068544e-120         0.1610084347         0.1304000153         0.1462967223        0.01617800674        0.08745262875       8.77127446e-07       -0.00522242575      2.463755264e-25 
                   1                    4          -3.72337601         0.6871428487         0.1058941239        0.01383518526      1.027088062e-12      4.868901828e-60     1.028975762e-119         0.5240362643         0.4219329333         0.4741318816        0.05483747951         0.2661663214      1.062666559e-05        0.04510627448      1.402804053e-25 
                   1                    1          14.91364252        0.01422806821        0.00219265735      0.0002864731257      2.126701754e-14      1.008161076e-61     2.130610449e-121        0.01020476027       0.008153195562       0.009239331283       0.001063001469       0.005652990544      1.862856702e-07      0.0006295187339      1.027090715e-26 
                   0                   68           0.02347182                   -0                   -0                   -0                   -0                   -0                   -0      0.0004058221629      -0.009136074328       0.002448512546      -0.002166318357        0.01655622668       5.48736834e-05        0.04906017081     -8.927851294e-06 
                   1                    1           -3.6532344         0.8137120297         0.1388539779        0.02547174737      3.272168883e-11      3.518983774e-53     3.615938187e-106         0.8137046802         0.5547777821         0.7259512315        0.09757870638         0.4274183985        0.00350174458         0.1939697993      1.441987013e-05 
                   1                    1          15.01766476                   -0                   -0                   -0                   -0                   -0                   -0      -0.005305649632      -0.002725529115      -0.005537814101      0.0002539745851      -0.006960776327     -3.528629293e-06      -0.006057293323      9.668975718e-07 
                   0                   69           0.64411195         -0.143979292       -0.03623783282       -0.01884996442     -1.948252931e-07     -2.393097784e-32     -5.000960905e-64        -0.3383416085         -0.269912079        -0.2633687485        -0.0865427703       -0.07035969227       -0.02054632591        -0.2744998861      -0.001090465946 
                   1                    2          -2.48597761         0.8783753877         0.2210763784         0.1149980985      1.188571911e-06      1.459958696e-31      3.050939417e-63          2.106341073          1.802259277          1.673678212         0.4944552001         0.8674538111        0.04855209889         0.1940322439       0.003452489504 
                   1                    1          14.95044865        0.01559313919       0.003924603066       0.002041474955      2.109982532e-08      2.591755127e-33      5.416103826e-65        0.02502976871        0.01815399805        0.01855133071       0.007690966275       0.008246272638       0.002325724715        0.03347549404      0.0001180988509 
                   0                   71           2.74454579        -0.2437584902       -0.03217280641      -0.002369160772     -1.558932973e-15     -1.258864457e-71    -3.066010084e-142        -0.1187405139        -0.1041542884        -0.1117560314      -0.007655041508       -0.07659569075     -7.793499202e-07       -0.03387029544     -1.637926087e-31 
                   1                    4          -3.72337601         0.4500354211        0.05939855662       0.004374027198      2.878156393e-15       2.32415944e-71     5.660574687e-142         0.2191621486         0.1492334577         0.2061762205        0.01422988385         0.1397281884      1.598083564e-06        0.05501113731      5.186670608e-32 
                   1                    1          14.91364252       0.009318491319       0.001229914154      9.056916981e-05       5.95954765e-17      4.812434432e-73     1.172085876e-143       0.004347031683      -0.007108496526       0.004076327015      0.0002964430396       0.002568473312      2.386455484e-08        -0.0010064137      5.876113108e-33 
                   0                   73           4.90411215        -0.1830979199       -0.02064053832     -0.0007826734259     -2.371885095e-18     -4.423266341e-84    -1.147502009e-166       -0.05271312303       -0.03902135181       -0.04998020791      -0.002988724766       -0.03492567521     -1.222027082e-08        -0.0166160367     -4.136322305e-52 
                   1                    2          -2.48597761          0.142045207        0.01601268621      0.0006071888137      1.840080485e-18      3.431517863e-84     8.902185259e-167        0.04081096608        0.03020007264        0.03867374434       0.002337709504        0.02701624655      7.375270246e-09        0.01365379753     -2.398509483e-52 
                   1                    1          14.95044865       0.002521621979      0.0002842612035      1.077896742e-05      3.266556818e-20      6.091716186e-86     1.580338153e-168      0.0006628375669      0.0005813665852      0.0006192209252      4.767896915e-05      0.0003685604602      2.029703987e-10     -0.0001241202746      1.387170624e-53 
                   0                   50          -5.77545461         0.1120086424        0.01196226918      0.0003533907872      1.358134357e-19       8.16981094e-89      1.11190544e-175        0.02685424826        0.01935059766        0.02562895432       0.001339597969        0.01871287126      2.287502123e-09        0.01022891779      4.611170392e-57 
                   1                    4          -1.24657601        0.04919522181       0.005253938205       0.000155212471       5.96505051e-20      3.588255806e-89     4.883590551e-176        0.01180844482       0.008512244646        0.01127163247      0.0005868313251       0.008232228443        1.1836641e-09       0.004325489766      2.780371714e-56 
                   1                    1          14.91364252        0.00200923223      0.0002145814489      6.339190835e-06      2.436247118e-21      1.465516151e-90     1.994557026e-177      0.0004748676968      0.0003495786158      0.0004522903685      2.468398905e-05      0.0003251808765      4.130920193e-11      0.0001653493168      8.271604736e-59 
                   0                   42          -4.23652838         0.7091767466         0.1220831632        0.02302895094       3.74652031e-11      1.123147344e-52     4.151769392e-105         0.7236587907         0.5831942858         0.6425591678          0.090170696         0.3670345419        0.00323680957         0.1255186044      3.922661933e-06 
                   1                    1           -1.1764344         0.4123213341        0.07098017947        0.01338922606      2.178258467e-11      6.530073264e-53     2.413873696e-105         0.4215268168         0.2982548657         0.3762782299        0.05042814516         0.2307411829       0.001874165992         0.1513019032     -6.580575592e-07 
                   1                    1          15.01766476                   -0                   -0                   -0                   -0                   -0                   -0      -0.005824672254        0.02674700815      -0.006433741928      0.0006629670703       -0.01099128973       5.75484797e-07       -0.02983346132      2.449491031e-07 
                   0                   43          -3.61588825          0.840501582         0.2091856461         0.1061527084      8.828575562e-07      4.179374685e-32      2.653449365e-64          1.958532315          1.666658495          1.550360813         0.4660546482         0.7686647922        0.04530733422         0.3030587042       0.003363327323 
                   1                    2          -0.00917761         0.3024359004        0.07527082708        0.03819670378      3.176767607e-07      1.503855523e-32      9.547850535e-65         0.7090800922         0.6311228066           0.56442864         0.1645909779         0.3398414621       0.005780394569        -0.1839205953      0.0002625186022 
                   1                    1          14.95044865        0.01552340129       0.003863493892       0.001960556798      1.630568272e-08        7.7189754e-34       4.90071169e-66        0.02376890266        0.02921919268        0.01551423682       0.009529915612       -0.01084580671       0.001790180948       -0.03530402535       0.000253536186 
                   0                   44          -2.21415976         0.4693128638        0.09932227256        0.03404182891      9.239135552e-09      1.347018374e-40       6.26351741e-81         0.7751051911         0.6395776772         0.6534747097         0.1425467425         0.2836607235        0.01985822769         0.1109189262        0.02098094565 
                   1                    3          -2.40082371         0.7762742402         0.1642855494        0.05630741647      1.528213583e-08      2.228056687e-40      1.036026837e-80          1.285034619          1.059286597          1.080771238         0.2355005532         0.4789376007        0.03215503986         0.1905401284        0.02373951331 
                   1                    1          14.94866767        0.01447120348       0.003062589856       0.001049675538      2.848875896e-10      4.153514314e-42      1.931347762e-82        0.01494633848         0.1905504537        0.01325309774       0.004414959007       0.001809527082       0.001036888974       -0.03944276555       0.007377306627 
                   0                   45          -1.51545441         0.3686796063         0.1292455721          0.122756581      0.0002631244503      4.938122531e-19       5.48535311e-38          1.541799426          1.507002107          1.076154235         0.6046338253         0.2738164916          0.203505646        0.01906821767         0.2218608561 
                   1                    4          -1.24657601         0.6101692281         0.2139029922         0.2031636331      0.0004354741624      8.172652792e-19      9.078326049e-38          2.607345024          2.476707798          1.764254137          1.011553702         0.4736937562         0.3159399275        0.05492053904          0.103478895 
                   1                    1          14.91364252        0.02492054378       0.008736230271       0.008297613152      1.778564442e-05      3.337876482e-20      3.707771734e-39        0.03994665747        -0.1720012417         0.0659176531         0.0341046378        0.04961561002        0.03905288522        0.07200293088          0.222256466 
                   0                   34           0.02347182                   -0                   -0                   -0                   -0                   -0                   -0        0.03644698944        -0.1548368811         0.0378127653       -0.03028791825         0.4743995792        -0.1778224849         0.6276185242       -0.01149672305 
                   1                    1           -1.1764344         0.5572350607         0.2433932895         0.3048959963       0.007813167168      8.180428237e-13      7.761829956e-26          3.225729443          3.260063046          1.976538096          1.614735167         0.5734241297         0.4582926168         0.0376547863         0.1543693403 
                   1                    1          15.01766476                   -0                   -0                   -0                   -0                   -0                   -0       -0.07699662487       -0.03102907783       -0.08808212957        0.01681088603        -0.1233841856        0.02317914049       -0.07373858063       0.001275775772 
                   0                   35           0.64411195       -0.09675673878       -0.07602684943         -0.142744163        -0.1415853882     -0.0001490989755     -7.975691296e-09          -1.18897039         -1.429406601        -0.3271827646          -1.00940316      -0.008435922088        -0.4905771349        0.02833986941         0.3703998291 
                   1                    2          -0.00917761         0.2041555552         0.1604157379         0.3011884673         0.2987434662      0.0003145970451      1.682861271e-08          2.490398511          2.723694146          0.852257767          2.000535755       -0.03413005392          0.483780698        -0.0674922718         0.3187684724 
                   1                    1          14.95044865        0.01047887702       0.008233803822        0.01545937316        0.01533387637      1.614760737e-05      8.637774414e-10      -0.003693910799       -0.05557689865       -0.01442228885         0.1010327832         0.1998583377         0.1785020617         0.2822287517         0.3408670619 
                   0                   36           2.04584044        -0.4361821968       -0.09584039164       -0.03618216871     -2.272035873e-08     -1.300714849e-38     -5.929884715e-77        -0.7927841547        -0.5601013392        -0.6621855239         -0.147427617        -0.3882844845       -0.00573000064        -0.2544172584     -3.284360485e-12 
                   1                    3          -2.40082371         0.7982683611         0.1753999887        0.06621792621      4.158111831e-08       2.38047201e-38      1.085243595e-76          1.453737029          1.232116493           1.21376521          0.270436336         0.6768285385       0.007577673651         0.1931921778     -1.090001102e-12 
                   1                    1          14.94866767        0.01488121502       0.003269783788       0.001234425973      7.751498025e-10      4.437644977e-40      2.023097003e-78        0.01925477777         0.0669900607        0.01523958766       0.004579145007      0.0009518760615      0.0004618264844       -0.07107851002      2.543328382e-13 
                   0                   37           2.74454579        -0.6400675889        -0.1676378663       -0.09497842818     -2.081043162e-06      -6.91719863e-30     -8.906187748e-60         -1.666476579         -1.456575546         -1.308902646        -0.4073459422        -0.6771890366       -0.02434961163         0.1153917857       -0.00103746273 
                   1                    4          -1.24657601         0.5991071148         0.1569100516        0.08890038031      1.947868923e-06      6.474539542e-30      8.336245326e-60           1.55798514          1.337240365          1.217068501         0.3877764298         0.5323379901        0.03242203669          0.332595495       0.001732073714 
                   1                    1          14.91364252        0.02446874472       0.006408523455       0.003630871104      7.955490136e-08       2.64433273e-31      3.404690977e-61        0.05698932797        0.04934555335        0.04546242966        0.01340981707        0.02088279903         0.0023877361       0.006029524592      0.0001793248121 
                   0                   38           4.28347202        -0.7091767466        -0.1220831632       -0.02302895094      -3.74652031e-11     -1.123147344e-52    -4.151769392e-105        -0.7281776026        -0.5555832817        -0.6482670436       -0.08856517285        -0.3704415479      -0.001482640661         -0.178208568     -5.188597405e-07 
                   1                    1           -1.1764344         0.4123213341        0.07098017947        0.01338922606      2.178258467e-11      6.530073264e-53     2.413873696e-105         0.4229779375         0.3549909749         0.3740926915        0.05404903566         0.2041161635       0.000715802592        0.04781400125      7.320424221e-07 
                   1                    1          15.01766476                   -0                   -0                   -0                   -0                   -0                   -0      -0.005789596557         0.0349391348      -0.006354285878      0.0006140133683       -0.01057158837     -9.994266715e-06       -0.03229158034       4.63975539e-08 
                   0                   39           4.90411215        -0.7589443546        -0.1251932431       -0.02058084988     -1.047841736e-11      -2.03857728e-55    -1.397039456e-110        -0.6979721236        -0.5662598684        -0.6229887774       -0.08256759885        -0.3448816608      -3.74965306e-05       -0.05272107389      -3.98333101e-23 
                   1                    2          -0.00917761         0.2036352526        0.03359107625       0.005522126277        2.8115041e-12      5.469784403e-56     3.748449815e-111         0.1863759558         0.1500063363         0.1654101206         0.0230746233        0.08687279591      1.274365374e-05        0.03718005287     -4.030757022e-23 
                   1                    1          14.95044865        0.01045217098       0.001724159584      0.0002834391752      1.443086165e-13      2.807525764e-57     1.924000775e-112       0.007152812596       0.006748542141       0.005890978749       0.001390704903       0.001157297189      6.475643383e-07      -0.003815549295      5.485837866e-25 
                   0                   16          -5.77545461         0.4649459918        0.05960509877       0.003908333463      1.000533776e-15      1.515952621e-73     2.606266171e-146         0.2080031199         0.1531428592         0.1961258473        0.01300753905         0.1337914966      9.372776487e-07        0.05404995603      1.175822395e-33 
                   1                    4           1.23022399       0.005623809997      0.0007209606196      4.727371606e-05      1.210207626e-17      1.833638671e-75     3.152440499e-148       0.002509206059      0.0003651794347       0.002357329958      0.0001655850946       0.001278844844      2.430463228e-08     -0.0003477990268     -7.202979369e-34 
                   1                    1          14.91364252       0.008340289212       0.001069207545      7.010842548e-05      1.794776426e-17      2.719344507e-75     4.675169592e-148       0.003550170164      0.0003797893259       0.003322941852      0.0002487803356        0.00205861945      1.701405791e-08     -0.0008704277692      2.109212469e-35 
                   0                    8          -4.23652838         0.9092325462         0.1968793749        0.07160755061      3.252824998e-08      4.514180833e-39      3.503902196e-78          1.592133467          1.306124491          1.327659365         0.2980772174         0.7462091494       0.008813366902         0.2651712881      2.164498315e-06 
                   1                    1            1.3003656                   -0                   -0                   -0                   -0                   -0                   -0      0.0001751818856        0.03619158342     -0.0003768409903      0.0005070282872       -0.01178811553     -0.0005327049355       -0.08503835501       6.13845258e-08 
                   1                    1          15.01766476                   -0                   -0                   -0                   -0                   -0                   -0       -0.01555523775        0.04578971687       -0.01761930152       0.002274637266       -0.03591250352      0.0001563779484        -0.1548235791      1.472025905e-08 
                   0                    9          -3.61588825         0.8460302146         0.2140920793         0.1126926837      1.292540119e-06      2.507083478e-31      9.271875707e-63          2.039225575          1.758180956          1.602174149          0.498086991         0.7620686777        0.04045916819         0.2233014301       0.003554384736 
                   1                    2           2.46762239        -0.2713483946         -0.068666037       -0.03614407415     -4.145581095e-07     -8.041002146e-32     -2.973781013e-63        -0.6578418243        -0.5842586324        -0.5206205848        -0.1563813865         -0.309041931      -0.005458902093         0.2193176354      0.0002218845565 
                   1                    1          14.95044865        0.01562551077       0.003954111842       0.002081344983      2.387219653e-08      4.630385442e-33      1.712442312e-64        0.02465440692        0.02768658266        0.01580254696        0.01017523928       -0.01022263825       0.001435505687       -0.01642773754      0.0003150213208 
                   0                   10          -2.21415976         0.5102366006         0.2152681185         0.2596063308       0.004727105856      1.097927684e-13      1.586756927e-27          2.865131904          2.870569992          1.730984124          1.388773675         0.3160418426         0.4263296096        -0.2192020867         0.1550923529 
                   1                    3           0.07597629         0.2791917333         0.1177906074         0.1420516313       0.002586582138       6.00765082e-14      8.682431177e-28          1.614180216          1.468677005         0.9531430135         0.7495710116         0.6255264052         0.0714584506         0.4886110892      -0.007411059729 
                   1                    1          14.94866767        0.01573308179       0.006637765518       0.008004928751       0.000145759718      3.385446287e-15      4.892745146e-29        0.01988434502       0.001686048174         0.0184118758        0.04236846539       -0.02360968354        0.04281621858        0.07978917229        0.08616792435 
                   0                   11          -1.51545441         0.2524821206         0.1857287942         0.3391107401         0.2610823514      8.989159403e-05      1.189179505e-09          2.870415991          3.174408617         0.9915652537          2.268638899     -0.0004859524313         0.6327219183       -0.08250305364          0.131720531 
                   1                    4           1.23022399        0.01150770069       0.008465198911        0.01545608413        0.01189968441      4.097104207e-06      5.420075599e-11        0.08720626878         0.1010875723        0.05096424522        0.09724705843       -0.06855362219       -0.05188709691        0.04387797422         0.3393696651 
                   1                    1          14.91364252        0.01706628637         0.0125541594        0.02292186468        0.01764761071      6.076135935e-06      8.038144617e-11         0.0494298195       -0.01180430576        0.06591483315         0.1237920208         0.2892350175         0.2252634201         0.4985509998          0.513550309 
                   0                    1           0.64411195       -0.08954319414       -0.07746188254        -0.1506488288         -0.205674328     -0.0008871275613     -2.764126714e-07         -1.233801893         -1.454969622         -0.282541104         -1.101944882        0.08989595608        -0.4564321599       -0.03200175979         0.1988745009 
                   1                    2           2.46762239        -0.1684066117        -0.1456849211        -0.2833298394        -0.3868179711      -0.001668447816     -5.198577275e-07         -2.260407348         -2.569809934        -0.6761322027         -1.957709868        0.06805535756        -0.5130857151         0.1198293421        -0.2920400859 
                   1                    1          14.95044865       0.009697641026        0.00838921972        0.01631545844        0.02227478951       9.60770354e-05      2.993584145e-08       -0.08169149825        -0.3371946224       -0.02182556445         0.1111519737         0.2434825551         0.2275320449         0.3362799267         0.5163658052 
                   0                    2           2.04584044        -0.4447091947        -0.2048527898        -0.2710008635       -0.01134486249     -1.033380111e-11     -1.464000451e-23         -2.882198402          -2.80851115         -1.674020044         -1.426698394        -0.5994055183        -0.2780536751        -0.2716819185        -0.0862672169 
                   1                    3           0.07597629         0.2692373579         0.1240226749         0.1640702674       0.006868445359      6.256325124e-12      8.863401482e-24          1.706284256          1.773314655          1.014237076          0.870008935       -0.06947499249         0.3362846878         -0.415027168         0.1177610479 
                   1                    1          14.94866767        0.01517213036        0.00698895653       0.009245728393       0.000387052336      3.525579847e-13      4.994725981e-25       0.009399994451       -0.01499948795        0.02122209299        0.04564857726     -0.0009872030924        0.05230092727        0.06117526923        0.09712956369 
                   0                    3           2.74454579        -0.6364386532        -0.2485546749        -0.2734073479      -0.002180402567     -1.332828557e-15     -2.044393099e-31         -3.232255416         -3.128469265         -2.117193333         -1.349938386        -0.4999848752        -0.4062180454       -0.03824778896         -0.175931429 
                   1                    4           1.23022399         0.0164055929       0.006407038273       0.007047670067      5.620462662e-05      3.435655991e-17      5.269868627e-33        0.04961132428       0.004767690993        0.06046461092        0.02853972225       -0.01335935912         0.0315915064        0.08436327139         0.1907181342 
                   1                    1          14.91364252         0.0243300164       0.009501841673        0.01045191901      8.335325008e-05      5.095187179e-17      7.815382895e-33        0.05607558681       -0.02675450521        0.07336368637        0.04295590905        0.05341403974        0.05447037447         0.1649203427         0.2841446959 
                   0                    4           4.28347202        -0.9092325462        -0.1968793749       -0.07160755061     -3.252824998e-08     -4.514180833e-39     -3.503902196e-78         -1.596583653         -1.331024393         -1.337657439        -0.2961162203         -0.592735063       -0.02924835661        -0.2417765643       -0.02465800235 
                   1                    1            1.3003656                   -0                   -0                   -0                   -0                   -0                   -0     -0.0008773207563         0.0535732052      0.0009960471324     -0.0008421040721      -0.003043561908      0.0001523495207       -0.05751406258       0.003204439047 
                   1                    1          15.01766476                   -0                   -0                   -0                   -0                   -0                   -0       -0.01705369798        0.07070281812       -0.01735186346       0.002103095021       -0.02584333636      0.0001913429758       -0.09841351574       0.004752285093 
                   0                    5           4.90411215        -0.7741026614        -0.1292138555       -0.02207885346     -1.556983992e-11     -1.242413128e-54    -4.960329869e-109        -0.7344380401        -0.5988615393           -0.6547464       -0.08777684055        -0.3557122775     -4.441070854e-05       -0.04055284625     -7.052286085e-24 
                   1                    2           2.46762239        -0.1851348443        -0.0309028611       -0.00528039148     -3.723692002e-12     -2.971362488e-55    -1.186315387e-109        -0.1748950996        -0.1407019351        -0.1546119821       -0.02233269752       -0.07891042759     -1.114554095e-05        -0.0438703559      9.367190196e-24 