ITEM: TIMESTEP
0
ITEM: NUMBER OF ENTRIES
588
ITEM: BOX BOUNDS pp pp pp
0 4.26
0 2.4768
0 30
ITEM: ENTRIES c_2[1] c_2[2] c_2[3] c_2[4] c_2[5] c_2[6] c_2[7] c_2[8] c_2[9] c_2[10] c_2[11] c_2[12] c_2[13] c_2[14] c_2[15] c_2[16] c_2[17] c_2[18] c_2[19] c_2[20] c_2[21] c_2[22] c_2[23] 
                   0                  102           4.91933149      -0.008308677343      -0.000866523263     -2.284343206e-05     -2.127298478e-12     -1.106370505e-17     -3.291670845e-21     -4.998712638e-92    -8.238701967e-181      -0.001805257978      -0.001476682897      -0.001764206076     -0.0003174735133      -0.001462291667     -9.603580635e-08      -0.001260898742     -8.532688245e-11     -0.0008019196966       2.50980549e-31     -0.0006964265938      2.465854347e-57 
                   1                    2          -5.04507513        0.07201739085       0.007510791661      0.0001980007535      1.843885369e-11      9.589723344e-17      2.853132166e-20      4.332750291e-91     7.141086302e-180        0.01566382451        0.01278859683        0.01530903476       0.002763340969        0.01268195112      7.365043903e-07        0.01093069445      1.083035555e-09       0.006809572115      7.928376081e-31       0.005549225825      3.291900549e-57 
                   1                    1          15.02295291      0.0006586589604        6.8692439e-05      1.810881635e-06      1.686386588e-13      8.770599898e-19      2.609426757e-22      3.962660642e-93     6.531117588e-182      0.0001410537317      0.0001153068561      0.0001378027199      2.484602643e-05      0.0001138897485       6.93744382e-09      9.820681874e-05      1.068743512e-11      6.407573242e-05      1.180081944e-32      5.535490502e-05      6.695245518e-59 
                   0                   68           4.18550973                   -0                   -0                   -0                   -0                   -0                   -0                   -0                   -0     -0.0007051849816      -0.004970351821     -0.0003826963427      -0.005795512918       0.006844527025      0.0005230281779        0.01013808405     -1.399839829e-05        0.02843594336     -3.537489732e-05        0.03756125053     -7.824895118e-07 
                   1                    1          -3.63810457         0.8137120297         0.1388539779        0.02547174737      3.870552671e-06      3.640260861e-09      3.272168883e-11      3.518983774e-53     3.615938187e-106         0.8183992807         0.5995619969         0.7691013909         0.2282609511         0.5315746166       0.006861321321         0.4239575243       0.003376646297         0.2196191924      8.355026675e-05         0.1833273126      8.309040394e-07 
                   1                    1          15.08112562                   -0                   -0                   -0                   -0                   -0                   -0                   -0                   -0      -0.003749057373      -0.002540748793      -0.003846874583      0.0003604137857       -0.00463758837     -3.734287138e-06      -0.005171068933      3.209617227e-06      -0.004484988002      2.804296295e-06      -0.003922047053      6.203077904e-08 
                   0                   69           0.65933129         0.4854100707         0.0750368108        0.00990916793      4.295332392e-07      1.631951189e-10      8.043609301e-13      5.603811294e-60     1.915040062e-119         0.3761189804         0.3269581392         0.3574574634         0.1049335817         0.2466072827      0.0003675491276         0.1907357265      1.196282773e-05        0.08247560127      3.154886855e-15        0.04896803375     -4.514235301e-26 
                   1                    2          -2.56827513         0.5346358314         0.0826463441        0.01091406329       4.73092493e-07      1.797448454e-10      8.859317113e-13      6.172097555e-60     2.109245559e-119         0.4142665432          0.361741495         0.3939902056         0.1155711974         0.2752955643       0.000367374491         0.2160433239      9.793657925e-06        0.07513098836      1.683990234e-14        0.01902941292       1.65452274e-25 
                   1                    1          15.02295291       0.008007994987       0.001237910874       0.000163475321      7.086173596e-09      2.692292091e-12      1.326984891e-14      9.244821124e-62     3.159314597e-121       0.005349524687       0.004868186702       0.005014422945       0.001864286716        0.00304702644      7.046499833e-06       0.002009103931      1.564936881e-07     -0.0005248422168      3.390072512e-16     -0.0009431269877      3.875212035e-27 
                   0                   71           2.82022554         0.1940934755        0.03048652372       0.004253256921      2.271740306e-07      1.003187807e-10      5.462525419e-13      2.754153754e-59     1.113502956e-117         0.1574369808         0.1375448628         0.1496771701        0.04331488419         0.1069890539      0.0003160321045        0.08657167763      0.0001567814943        0.02734815928      4.260281476e-05      0.0002575257979      8.266329733e-06 
                   1                    4          -3.70030415         0.7130632437         0.1120018044        0.01562567298      8.345950358e-07      3.685524976e-10          2.00683e-12      1.011824743e-58     4.090802268e-117         0.5769698896         0.5022505951         0.5476924069         0.1615037667         0.3792414268       0.001101742369         0.2966847677      0.0004870612572         0.1254855507      0.0001477646948        0.05962296499      3.494161695e-05 
                   1                    1          15.01263002       0.009737569043       0.001529493089      0.0002133836947      1.139720334e-08       5.03294122e-12      2.740520683e-14       1.38174466e-60     5.586386604e-119       0.007252316019       0.006277916989       0.006869526984        0.00197454343       0.004863072441      1.207543249e-05       0.004026533777      2.114031221e-06       0.002101786816      1.626224705e-06      0.0007903395413       6.81829097e-07 
                   0                   73           4.91933149        -0.1672000732        -0.0403641612       -0.01912103349     -0.0001160769705     -1.615631788e-06     -8.699209981e-08     -2.920928721e-34     -6.798124221e-68        -0.3712470592        -0.3238731089        -0.3274134488        -0.1461913604        -0.1671424978       -0.01790772826        -0.1135353962        -0.0133559986       -0.09723289718     -0.0004082704591        -0.2307491942     -0.0002686747024 
                   1                    2          -2.56827513         0.8849106926         0.2136283625         0.1011985621       0.000614340355      8.550772841e-06      4.604079282e-07      1.545909047e-33      3.597924748e-67          1.972849249          1.785116337          1.737713414         0.7812362544          1.036735399        0.07814503321          0.806312866        0.02756282661         0.3445886097       0.001838438287         0.1434441641       0.001159248709 
                   1                    1          15.02295291        0.01325455567       0.003199813322       0.001515793612      9.201842066e-06      1.280769863e-07      6.896178977e-09       2.31552604e-35      5.389119407e-69        0.02355708739        0.01980370643         0.0203275799        0.00844375899        0.01248603284       0.001936297968       0.009850095053       0.001142584874        0.01316235007      3.255244547e-05        0.02127827503      2.129883919e-05 
                   0                   75           7.08022574        -0.2348685265       -0.03019867456      -0.002003825035     -6.483208799e-09     -3.883214819e-13     -5.649898536e-16     -1.284153675e-73    -3.658588192e-146        -0.1050782537       -0.07798845145        -0.1019189086       -0.02055779226       -0.08043220697     -3.627901272e-05       -0.06701057414     -2.159661698e-06       -0.03556454816     -2.941683503e-12       -0.03067637044      -1.88566062e-19 
                   1                    4          -3.70030415         0.4069668501        0.05232654901       0.003472114272      1.123373618e-08      6.728614203e-13      9.789823459e-16      2.225108592e-73     6.339393936e-146         0.1819281067         0.1530511587         0.1764035003        0.03801581731         0.1389717446      7.105604951e-05         0.1156094534      5.082349249e-06        0.05883827181      5.947412178e-12        0.04655599761      2.951377192e-19 
                   1                    1          15.01263002       0.005557526398      0.0007145696938      4.741508238e-05       1.53407545e-10      9.188574218e-15      1.336895187e-17      3.038601236e-75     8.657056254e-148       0.002355537888       0.001482469005       0.002277594789      0.0007195041254       0.001717817213      6.513153507e-07       0.001320096859       2.51547624e-08      -0.000110670368      5.478781171e-14     -0.0009446349714      5.012658743e-21 
                   0                   80           9.17933169        -0.1010475187       -0.01082113605     -0.0003238347323     -5.035179701e-11     -3.723205561e-16     -1.387964769e-19     -1.263908691e-88    -2.844839423e-175       -0.02414467712       -0.01971618511       -0.02356278085      -0.004392034241       -0.01929426543     -1.349199474e-06       -0.01650423756     -2.737441943e-09        -0.0102235937     -2.298947799e-27      -0.008331831876     -2.180352378e-46 
                   1                    2          -2.56827513         0.0785861774       0.008415760506      0.0002518511492      3.915935098e-11      2.895593047e-16      1.079441108e-19      9.829608272e-89     2.212474471e-175        0.01877299727        0.01536626873        0.01831873308       0.003415830497        0.01499753717      1.093793613e-06        0.01283206432      1.853452136e-09         0.0080863514      4.873925544e-28       0.006787765511       4.67330901e-47 
                   1                    1          15.02295291        0.00117709603      0.0001260547161      3.772329915e-06      5.865448366e-13       4.33713815e-18       1.61683121e-21      1.472319084e-90       3.3139351e-177      0.0002726979835      0.0002377354837      0.0002655330678      5.781833844e-05      0.0002126009085      1.589131634e-08      0.0001775249578      3.386110599e-11      9.289923556e-05     -3.347736711e-30      5.639723843e-05     -3.392968578e-49 
                   0                   42          -0.07449047         0.7091767466         0.1220831632        0.02302895094      3.894688774e-06      3.958702083e-09       3.74652031e-11      1.123147344e-52     4.151769392e-105         0.7278479291          0.604927805          0.683953377           0.20549363          0.467384021       0.006067573824         0.3683753315       0.003831190044         0.1875488627      0.0005967437398         0.1535648635        5.7544345e-05 
                   1                    1          -1.16130457         0.4123213341        0.07098017947        0.01338922606       2.26440486e-06      2.301622737e-09      2.178258467e-11      6.530073264e-53     2.413873696e-105         0.4221292129         0.3718465582         0.3973289577         0.1143035769         0.2807251091       0.004070685757         0.2278398224        0.00226788879          0.147451282      0.0001631685169         0.1427072294     -1.000074469e-06 
                   1                    1          15.08112562                   -0                   -0                   -0                   -0                   -0                   -0                   -0                   -0      -0.004047681215         0.0533145523      -0.004247901792       0.009031984392      -0.006097453047      -1.50015342e-05      -0.007605383317     -1.989336483e-06       -0.01377154708      1.662238339e-05       -0.02208121636      3.116468269e-06 
                   0                   45          -1.43977466         0.2145291884        0.02422851708      0.0009263996228      3.740048465e-10      5.298794033e-15      3.004284128e-18      7.338632015e-84     2.656953232e-166        0.06229923862        0.05079419853         0.0606714757        0.01157212354        0.04911022878      5.738374153e-06         0.0418850336       4.84125615e-08        0.02694172827      3.221714752e-19        0.02330156854      4.148559586e-33 
                   1                    4          -1.22350415        0.09682879684         0.0109356595      0.0004181349937      1.688089139e-10      2.391636563e-15      1.355998312e-18      3.312327398e-84     1.199228816e-166        0.02813627117        0.02273503446        0.02741092303       0.005215481179        0.02221495302      2.279884183e-06        0.01894404171      1.415079548e-08        0.01170797259      1.149834192e-19       0.009317083083      2.186152705e-33 
                   1                    1          15.01263002       0.002612188907      0.0002950156293      1.128019378e-05       4.55402511e-12      6.452012937e-17      3.658130499e-20      8.935797166e-86     3.235207204e-168       0.000733728782      0.0006434574931      0.0007127765836      0.0001574661511      0.0005636073896      6.310927192e-08      0.0004701218314      2.434885446e-10      0.0002660541232      2.748028212e-21      0.0001984367085      6.262502911e-35 
                   0                   34           4.18550973                   -0                   -0                   -0                   -0                   -0                   -0                   -0                   -0       0.009709025363        -0.0762326743        0.02191015863        -0.1048545676         0.2110110078       -0.09635048589         0.3488295151        -0.1606317762         0.4485981418       -0.01712517425         0.4617387344       -0.00403280943 
                   1                    1          -1.16130457         0.5572350607         0.2433932895         0.3048959963        0.08916197783        0.02165100651       0.007813167168      8.180428237e-13      7.761829956e-26          3.309328726          3.385755958          2.464340191          2.217894725         0.8685428969         0.6451471605          0.539296652         0.4154995098        0.07417977193         0.1655830397        0.02442627487         0.1533726053 
                   1                    1          15.08112562                   -0                   -0                   -0                   -0                   -0                   -0                   -0                   -0       -0.05284441685       -0.03180125779        -0.0619333422        0.01551597633       -0.07673140726        0.01344399364       -0.08942221503        0.01645741237       -0.06356459468       0.002779321125       -0.04462606141      0.0004229600643 
                   0                   35           0.65933129          0.822537105         0.2100972011         0.1128507453       0.001124563724      2.253629125e-05      1.546324125e-06      6.547061163e-31      6.421580054e-62          2.049544114          1.852476579          1.781967317         0.8433759752          1.015926936         0.1157742737         0.7652750144        0.06705290338         0.3795021186        0.01009695872         0.3435241637       0.006336198698 
                   1                    2          -0.09147513         0.3281982211        0.08383029437        0.04502825906      0.0004487090144      8.992142303e-06      6.169944481e-07      2.612324494e-31      2.562256629e-62         0.8196397601         0.7713576713          0.714552156         0.3408050709         0.4555649904          0.041250993         0.3757935028        0.01116410898        0.05624067345      0.0005206515268        -0.2646369089       0.001199700722 
                   1                    1          15.02295291        0.01356970819       0.003466053621       0.001861741767      1.855235647e-05      3.717897882e-07      2.551029859e-08      1.080093639e-32      1.059392542e-63        0.02634037455        0.02598771315        0.02177167871        0.01516663386       0.007140126089       0.002834585387     -0.0006028190498       0.002591791782       -0.01157063576      0.0005569439485      -0.003407690962      0.0003788024549 
                   0                   36           2.03805807          0.451143615        0.09567659613        0.03297223587      5.748341737e-05      3.202929398e-07      9.383334487e-09      1.683279543e-40       1.01416152e-80         0.7611073201           0.59750012         0.6893917329         0.2600613025         0.4044870181        0.02289741783         0.2904947366        0.01923684031         0.1535193505        0.01362023634         0.1627118694       0.008133194659 
                   1                    3          -2.43222451         0.7873331694         0.1669742299        0.05754295109      0.0001003197201      5.589733448e-07      1.637573987e-08      2.937649506e-40      1.769908689e-80          1.323893806          1.217198105          1.200719952         0.4912423962         0.7043732341        0.04010984769         0.5010308987        0.03480325831         0.2059687767         0.0331083561         0.1678639577        0.03162466474 
                   1                    1           15.0387313        0.00890633635        0.00188881748       0.000650927583      1.134819673e-06      6.323123187e-09      1.852428589e-10      3.323077903e-42         2.002126e-82       0.008353299755        0.05404716942       0.007395197374        0.01479449172       0.002209224581      0.0004853645283     -0.0001338551161      0.0007948646019        -0.0146401774       0.003487206026       -0.03026486831       0.006167739216 
                   0                   37           2.82022554         0.3247762275         0.1184185131         0.1189508825        0.01432335546       0.001804170516      0.0004206094941      7.152486577e-18       1.24801686e-35          1.545335478          1.585021686          1.189153557         0.9014789711         0.4692047374          0.230618789         0.2887192064         0.1622389454        0.05730975325       -0.02729757469       -0.03888466986        -0.1541170931 
                   1                    4          -1.22350415         0.6039817287         0.2202212238         0.2212112635        0.02663694032       0.003355190236      0.0007822014908      1.330137751e-17      2.320919195e-35            2.7884664          2.678774898          2.154528354          1.625207292         0.8532707801         0.4580252513         0.4714024639         0.3762851023        0.06078936472         0.2990837955        0.08044453053         0.3059654949 
                   1                    1          15.01263002        0.01629385496       0.005940995412       0.005967704106      0.0007185953176      9.051429946e-05      2.110176026e-05      3.588365434e-19      6.261235883e-37        0.03937088789      -0.007972861007          0.030063707        0.01685326663        0.03316954189        0.02274947828        0.03723683542        0.03413184731         0.0390804394          0.114768049        0.05470539468         0.1836680058 
                   0                   38           8.44550993        -0.7091767466        -0.1220831632       -0.02302895094     -3.894688774e-06     -3.958702083e-09      -3.74652031e-11     -1.123147344e-52    -4.151769392e-105        -0.7278673782        -0.5997818887        -0.6827788784        -0.2046277041        -0.4650892747       -0.00576399041        -0.3678745852      -0.002756123715        -0.2083875491     -7.632178165e-05        -0.1880304537     -7.881901601e-07 
                   1                    1          -1.16130457         0.4123213341        0.07098017947        0.01338922606       2.26440486e-06      2.301622737e-09      2.178258467e-11      6.530073264e-53     2.413873696e-105         0.4238074983         0.3927951033         0.3972815673         0.1318965899         0.2622082737       0.002691408066         0.2024705924       0.001556546387        0.08236248597      8.916258447e-05        0.04832744733      2.023927437e-06 
                   1                    1          15.08112562                   -0                   -0                   -0                   -0                   -0                   -0                   -0                   -0      -0.004033811718        0.03592094178      -0.004205215944       0.007295463818      -0.005724790238     -9.475288641e-06      -0.007013375716     -1.683133478e-06       -0.01310558406      3.583945994e-06       -0.02079229468      1.252837538e-07 
                   0                   39           4.91933149        -0.1231273622       -0.08791512255          -0.15832818        -0.2008255533         -0.144618607        -0.1076178018     -2.138271731e-05     -1.422988239e-10         -1.460491093         -1.626069971         -0.805746601         -1.244571212        -0.1048186488        -0.4960191746       -0.07479061361        -0.3210304381        -0.1932925256           -0.1007856       0.009159473515        0.05907372541 
                   1                    2          -0.09147513         0.2360744573         0.1685613537         0.3035656617         0.3850466919         0.2772800338         0.2063376792      4.099749475e-05      2.728322692e-10          2.687840471          2.817463529          1.529334921          2.362509834         0.1379247609         0.8643155021        0.01462418044         0.5323332908        -0.1671661415         0.2232611791       -0.05879286366         0.2635133223 
                   1                    1          15.02295291       0.009760752168       0.006969350335        0.01255124855        0.01592016932        0.01146444102       0.008531253116      1.695085484e-06      1.128054341e-11       -0.03703972845       -0.06773710043       -0.03723425671     -0.0006202473834         0.1109568333         0.1207442739         0.1537633646         0.1115306445         0.1783592323         0.1935866805         0.2082621506         0.3395630331 
                   0                   40           6.29805827        -0.4458986672       -0.09513457385       -0.03330414165     -6.173283432e-05     -3.597687712e-07     -1.085913721e-08     -3.532292518e-40     -4.476106733e-80        -0.7661058358        -0.6244735559        -0.6929473468        -0.2481565781           -0.4503245        -0.0178966602        -0.3610808191      -0.003183422112         -0.206979077     -2.499402093e-09        -0.2090813707      1.312693608e-15 
                   1                    3          -2.43222451         0.7910366529         0.1687713833        0.05908247474      0.0001095157672      6.382398189e-07      1.926441181e-08      6.266385293e-40      7.940737995e-80          1.357743719          1.210021143          1.227396516          0.477069155         0.7883097057        0.03084473095         0.6241404811        0.00544081231         0.2846623093      1.458393503e-08          0.210877433      2.179511863e-15 
                   1                    1           15.0387313       0.008948230266       0.001909146933      0.0006683427205      1.238845633e-06      7.219787911e-09      2.179196024e-10      7.088553777e-42      8.982586559e-82       0.009717426482        0.06041147469       0.008256559363        0.01942028561       0.002134088922       0.000672755659      -0.002743581627      0.0002361728573        -0.0321143709      2.578193636e-09       -0.06194645288      4.660793969e-16 
                   0                   41           7.08022574        -0.6702295159        -0.1678586787       -0.08637329181     -0.0007264784028     -1.285121652e-05     -8.115760584e-07     -6.562190202e-32     -8.132900104e-64         -1.609013032         -1.478145665         -1.405375013         -0.668084821        -0.8286263571       -0.06881925627         -0.641557168       -0.02272696145        -0.1636671276      -0.002981381552         0.0959148783      -0.001512442564 
                   1                    4          -1.22350415         0.5878685348         0.1472314083        0.07575933213      0.0006372052918       1.12719981e-05      7.118457438e-07      5.755797152e-32      7.133490773e-64          1.407390959          1.265491598          1.229326228         0.5796236465         0.6689195132        0.06401637027         0.4876445109        0.03230459172          0.299578329       0.003156688562         0.3702660705       0.001968167726 
                   1                    1          15.01263002        0.01585916293       0.003971920172        0.00204378959      1.719014021e-05      3.040891692e-07      1.920374533e-08      1.552764256e-33      1.924430135e-65        0.03302339495        0.03012816751         0.0285294144        0.01401429925        0.01617265234       0.002583145464        0.01025961699       0.001606916644        0.00398108933       0.000134231589       0.006966112725      0.0001240184123 
                   0                   46           9.17933169        -0.7147312807        -0.1126501252       -0.01590150622     -8.880865692e-07     -4.049950053e-10     -2.252774627e-12     -1.734813608e-58    -1.190100425e-116          -0.58229521        -0.5082134737        -0.5524053066        -0.1652415706        -0.3795409053     -0.0005382021225        -0.2968495236     -1.895074961e-05        -0.1161759723     -6.439641716e-07       -0.04616247481     -1.697644218e-07 
                   1                    2          -0.09147513         0.2013699884        0.03173829803       0.004480125902      2.502114949e-07       1.14104198e-10      6.347017583e-13      4.887702631e-59     3.353015535e-117         0.1638681113         0.1430184123         0.1554046186        0.04712523575         0.1044922914      0.0001534397022        0.07953173532      8.072583755e-06        0.03578875559      1.363195622e-07        0.01935704361      3.597155692e-08 
                   1                    1          15.02295291       0.008325858602       0.001312254044      0.0001852356206      1.034526318e-08      4.717760702e-12      2.624242637e-14      2.020873185e-60     1.386340311e-118       0.005784145757       0.005219578121       0.005395794326       0.001995960612        0.00327794584      8.989799872e-06       0.002314393127      2.027755557e-07       3.24202217e-06     -1.019030757e-09      -0.000562745523     -2.621374557e-10 
                   0                    8          -0.07449047         0.9092325462         0.1968793749        0.07160755061      0.0001541166679      1.002058221e-06      3.252824998e-08      4.514180833e-39      3.503902196e-78          1.607790917          1.411757185          1.454635838         0.5528206343         0.9436826527        0.04152073012          0.750059493       0.009895734461         0.3566157736      1.168684469e-05         0.2800548405      3.672094324e-07 
                   1                    1           1.31549543                   -0                   -0                   -0                   -0                   -0                   -0                   -0                   -0      0.0005752228559        0.03909453525      0.0005117659639        0.01339303681       -0.00302238275      -0.001225939295       -0.00530877154      -0.001412233108       -0.01105717755      6.401892163e-07       -0.06159778387      4.484330028e-08 
                   1                    1          15.08112562                   -0                   -0                   -0                   -0                   -0                   -0                   -0                   -0       -0.01081668017        0.03859249969        -0.0115450993        0.01946090219       -0.01853261377      0.0002325724589       -0.02571203595      0.0001914324808       -0.06929473664      -1.53576264e-08        -0.1174017558     -1.881715775e-09 
                   0                   11          -1.43977466          0.557293652        0.07578265477       0.006267233337      4.636428439e-08      4.978335584e-12      1.064018305e-14       4.76266743e-69     1.730423379e-137         0.2961243527         0.2441835752         0.2862825828        0.06363320603         0.2225359255      0.0001932482815         0.1842180119      2.001572287e-05        0.09296011819      1.153666876e-09        0.07470172642      7.164248283e-15 
                   1                    4           1.25329585       0.006162076206      0.0008379397327        6.9297702e-05      5.126565728e-10      5.504617383e-14      1.176500371e-16      5.266149999e-71     1.913354063e-139       0.003309571539      -0.001046738273       0.003182707302      0.0005296904531       0.002376793709      1.054999511e-05       0.001943020594      2.651236772e-06       0.002252905321      9.102888898e-11       0.001013507158     -8.724092476e-17 
                   1                    1          15.01263002       0.006785819245      0.0009227583973      7.631221428e-05      5.645491424e-10      6.061810553e-14      1.295589115e-16      5.799204815e-71     2.107029252e-139       0.003349925376      -0.001176567513       0.003218521866       0.000754457283       0.002322648073      1.983892013e-06       0.001713128191      9.344048965e-08     -0.0004292478737      9.097361711e-12       -0.00179270469      9.775558194e-17 
                   0                    1           0.65933129         0.8333447633         0.2217596857          0.129872367       0.001821839455       4.69610819e-05      3.809586605e-06      4.559184265e-29      2.909504429e-58          2.253856458          2.061266283          1.944805455         0.9690530429          1.082338735         0.1169478818         0.8084948808        0.04870209597         0.3337463661       0.007608969017         0.2093925966       0.003748924617 