ITEM: TIMESTEP
0
ITEM: NUMBER OF ENTRIES
594
ITEM: BOX BOUNDS pp pp pp
0 4.26
0 2.4768
0 30
ITEM: ENTRIES c_2[1] c_2[2] c_2[3] c_2[4] c_2[5] c_2[6] c_2[7] c_2[8] c_2[9] c_2[10] c_2[11] c_2[12] c_2[13] c_2[14] c_2[15] c_2[16] c_2[17] 
                   0                   99           0.78726207       -0.02121298925       -0.00232637319     -7.780287455e-05     -8.421509813e-20     -2.719969801e-87    -4.784096863e-172      -0.005506778639      -0.004064465172      -0.005227095927     -0.0003059910484      -0.003703746067      -5.55638345e-10      -0.002245295147        1.8534755e-51 
                   1                    2          -5.00832478         0.1754631831        0.01924258954       0.000643546266       6.96584956e-19      2.249822284e-86     3.957164424e-171        0.04584167156        0.03358268842         0.0436047011       0.002446161008        0.03120971158      8.501275412e-09        0.01551314885      1.330112046e-51 
                   1                    1          14.96248349       0.002395794868      0.0002627405729      8.787056143e-06      9.511252632e-21      3.071933716e-88     5.403158685e-173      0.0005778015536      0.0004243767769      0.0005474467914      3.320878644e-05      0.0003878418933      1.501676627e-10      0.0002549259573      1.189407588e-52 
                   0                   77          -3.47273813         0.5228158946        0.08417578653        0.01276872844      3.306463254e-12      3.449213919e-57     6.124560335e-114         0.4477756284         0.3592579508         0.4007013464        0.05180966058         0.2180613773      3.014548528e-05        0.07874824957     -7.370989641e-24 
                   1                    2          -2.53152478         0.5564866164        0.08959692908        0.01359106821      3.519408204e-12      3.671352388e-57     6.518998166e-114         0.4785567978         0.3893536251         0.4300820491         0.0533629304         0.2422614475       2.94759056e-05       0.009736131748      1.838268214e-23 
                   1                    1          14.96248349        0.01263703413       0.002034621171      0.0003086341842      7.992084678e-14      8.337128707e-59      1.48037347e-115       0.007467121859       0.007651044927       0.006088338436       0.001515810569     -0.0001749978845      6.845274676e-07      -0.007160053618      1.305485511e-24 
                   0                   78          -2.22563139       0.005471566325      0.0005557055717      1.285741903e-05       5.61144013e-22      9.740167507e-95     9.422955035e-186       0.001055103378      0.0007919563283       0.001005174096      5.456509207e-05      0.0007141888089      1.138489697e-10      0.0002248257041      1.644797186e-52 
                   1                    3          -4.86667215        0.01468373938       0.001491316252      3.450474306e-05      1.505911096e-21      2.613914786e-94     2.528786232e-185       0.002832000502        0.00212525729       0.002697862282       0.000146592918       0.001916720972      2.989313216e-10      0.0006171350433      2.698605339e-52 
                   1                    1          14.91213236      0.0003269720036      3.320807121e-05      7.683386826e-07      3.353306372e-23       5.82056745e-96     5.631006378e-187      6.289180601e-05      4.731815505e-05      5.990720808e-05      3.261683466e-06       4.24924139e-05      6.833782409e-12      1.291073452e-05      1.187923313e-53 
                   0                   79          -1.40215023         0.2162882136        0.03499990238       0.005399647385      1.611375132e-12      3.104822242e-57     1.186048424e-113         0.1884482526         0.1535950549         0.1693934372        0.02098030863        0.09746612669      2.209102134e-06      -0.002529302177       7.80571215e-24 
                   1                    4          -3.69864604         0.7371064345         0.1192790528        0.01840190348      5.491538159e-12      1.058117969e-56     4.042032206e-113         0.6400720006         0.5192231747         0.5725521651        0.07429222339         0.3129444919      1.917158299e-05        0.05111162436      4.671397572e-24 
                   1                    1          14.91491221        0.01990648043       0.003221279885      0.0004969664006      1.483058508e-13      2.857579809e-58     1.091601311e-114        0.01542162618        0.01248086935        0.01373752538       0.001858321748       0.008155812007      5.100305774e-07      0.0005922051535      5.418567709e-25 
                   0                   68           0.03627336                   -0                   -0                   -0                   -0                   -0                   -0      0.0005177348679      -0.006583431685       0.002985074944      -0.002630094024         0.0141213815      0.0001030745787        0.03925891028     -1.121677132e-06 
                   1                    1           -3.7501237         0.8137120297         0.1388539779        0.02547174737      3.272168883e-11      3.518983774e-53     3.615938187e-106         0.8131001023         0.5582748689         0.7231089827        0.09983406985         0.4133848427       0.002274073191         0.1818990849      1.966089171e-06 
                   1                    1          15.04730015                   -0                   -0                   -0                   -0                   -0                   -0       -0.00774671133      -0.004685221272      -0.008022015214      0.0003029752356      -0.009039448234     -6.217410754e-06      -0.005701291081       1.26682208e-07 
                   0                   69           0.78726207        -0.1748612806       -0.04444095513       -0.02361340952     -2.941455533e-07     -8.196741316e-32     -4.767042922e-63         -0.419391062        -0.3505280463        -0.3233681962        -0.1095024699       -0.08988713474       -0.01711949874        -0.2862607563       -0.00128619149 
                   1                    2          -2.53152478         0.8696629698         0.2210246482         0.1174399946      1.462916745e-06       4.07660425e-31      2.370862601e-62          2.127990407           1.83549026          1.683594114          0.506354115         0.8427423251        0.03841232386         0.1040416686       0.002944543556 
                   1                    1          14.96248349        0.01974883189       0.005019161182       0.002666898317      3.322079687e-08      9.257399106e-33      5.383897965e-64        0.02722117814        0.02166050447        0.01853337643         0.0101886797       0.006179239453       0.002214369697        0.03669426521      0.0001452626401 
                   0                   70           2.03436881       -0.02519892131      -0.002638120782     -7.084972028e-05     -1.201361462e-20     -3.340373953e-91    -1.128434438e-179      -0.005561652409       -0.00412815904       -0.00531828523     -0.0002659003755      -0.003888952701      -4.49354671e-10       -0.00137724775     -2.410133238e-50 
                   1                    3          -4.86667215        0.07655349654       0.008014524418      0.0002152391267      3.649696722e-20      1.014794652e-90     3.428146815e-179        0.01690123545        0.01258069108        0.01616342578      0.0008061525992        0.01181217291      1.513173629e-09       0.004134615636       1.66056318e-50 
                   1                    1          14.91213236       0.001704664561      0.0001784644251      4.792864181e-06      8.127007834e-22      2.259706688e-92     7.633668808e-181      0.0003715242033      0.0002777673424      0.0003551593789      1.788155984e-05      0.0002589426403      3.196974387e-11      8.040709369e-05      1.246702482e-51 
                   0                   71           2.85784997         -0.269982888       -0.03632246946      -0.002882348605     -3.490909239e-15     -3.727545243e-70    -2.268398918e-139        -0.1394797969       -0.09629116716        -0.1310470248      -0.009243936945       -0.08876675183     -3.702886684e-06       -0.03866361513     -4.329883397e-18 
                   1                    4          -3.69864604         0.4690601496          0.063105566       0.005007705777      6.065000719e-15      6.476124994e-70     3.941048055e-139         0.2423441458         0.1795882934         0.2276535852         0.0161059183         0.1539433561      9.019742477e-06        0.06604865723      7.411819325e-18 
                   1                    1          14.91491221        0.01266755553       0.001704244673      0.0001352393527      1.637929239e-16      1.748958487e-71     1.064329279e-140       0.006039259429        0.01389562438       0.005620164692      0.0004588388785       0.003263570408      9.903401169e-08      -0.003063109501      2.053343369e-19 
                   0                   73           5.04726227        -0.1457356896       -0.01602219789     -0.0005420197984      -6.44866232e-19     -3.011476497e-86     -8.32863565e-171       -0.03824821309       -0.02803154631       -0.03637718829      -0.002045769738       -0.02590797631     -8.291983805e-09       -0.01242302968     -5.040624541e-51 
                   1                    2          -2.53152478         0.1086258557        0.01194233863      0.0004040010003      4.806588313e-19      2.244640364e-86      6.20784913e-171        0.02844889318        0.02092307228         0.0270468542       0.001533206311        0.01924657707      5.404310924e-09       0.009736350361     -2.341664469e-51 
                   1                    1          14.96248349       0.002466741527      0.0002711938372      9.174298682e-06        1.0915091e-20      5.097264886e-88     1.409715868e-172      0.0005862251352      0.0005304534408      0.0005488217921       4.08686885e-05      0.0003246843206      1.731122407e-10     -0.0001464424467      3.022273217e-52 
                   0                   50          -5.66215043         0.2025998209        0.02270615522       0.000838623167      2.050117548e-18      1.628475075e-84     1.473620822e-167        0.05820104254        0.04183692054        0.05529544151       0.003178065898        0.03944768227      7.376627405e-09        0.02259208231     -2.092486831e-56 
                   1                    4          -1.22184604         0.0862290854       0.009664031239      0.0003569287889      8.725563546e-19      6.930999035e-85     6.271919449e-168        0.02481661751        0.01781999033        0.02358886995       0.001342648111        0.01685388842      4.252463236e-09       0.009169713714      6.753466165e-55 
                   1                    1          14.91491221       0.004706875781       0.000527517999      1.948321108e-05      4.762910745e-20      3.783334979e-86     3.423571713e-169       0.001295391021       0.001115322234       0.001223178816      7.898198684e-05      0.0008268025944        1.7634501e-10      0.0001881810422     -4.861344666e-58 
                   0                   42          -4.22372684         0.7091767466         0.1220831632        0.02302895094       3.74652031e-11      1.123147344e-52     4.151769392e-105         0.7227219064         0.5851736155         0.6427230308         0.0887624064         0.3628863612        0.00229337556         0.0944235928      1.092748161e-05 
                   1                    1           -1.2733237         0.4123213341        0.07098017947        0.01338922606      2.178258467e-11      6.530073264e-53     2.413873696e-105         0.4213876171         0.3147543916          0.377430061        0.04888206615         0.2276840291       0.001443440897         0.1701266136      7.575599781e-07 
                   1                    1          15.04730015                   -0                   -0                   -0                   -0                   -0                   -0      -0.008555561777       0.007956538633      -0.009495648028        0.00102284423       -0.01620824582     -1.073732752e-05       -0.04883591372      6.069489515e-07 
                   0                   43          -3.47273813         0.8253927824         0.2161602912         0.1224513572      2.679451184e-06      8.854732382e-30      1.131849961e-59          2.123216351          1.812618057          1.649106823          0.543723336         0.7764813109        0.06280576152         0.3829635486       0.003170524564 
                   1                    2          -0.05472478         0.2959551695         0.0775070451        0.04390650481      9.607515915e-07      3.174977876e-30      4.058393218e-60         0.7665853278         0.7142108184         0.6026624829         0.1875215152         0.3681352423         0.0106951141        -0.2991202119     -0.0003823645225 
                   1                    1          14.96248349        0.01995064969       0.005224831544       0.002959783734      6.476527669e-08      2.140286026e-31      2.735805613e-61        0.02748253027        0.05263245962        0.01432794842        0.01523931869       -0.03004867134        0.00321477116        -0.1064716928      0.0005066745386 
                   0                   44          -2.22563139           0.48423174         0.1052888765        0.03870435003      1.928259807e-08       4.00854488e-39      5.154868542e-78            0.8482853          0.608631086         0.7054369426         0.1646161697         0.3007194664        0.01993995797         0.1743735707        0.01671010396 
                   1                    3          -2.38987215         0.7692690739         0.1672659387        0.06148721169      3.063307325e-08      6.368127805e-39      8.189221445e-78          1.349050621          1.182860094           1.12495158         0.2580007979         0.4944217836        0.03169176975         0.1786764926        0.02477971513 
                   1                    1          14.91213236        0.02893690998       0.006291893923       0.002312909709      1.152297048e-09       2.39544195e-40      3.080466534e-79         0.0409499891         0.1034885784        0.03574405195       0.008972642982         0.0147421662        0.00171838778        -0.0283447072       0.009966358612 
                   0                   45          -1.40215023         0.3402309854         0.1272984466         0.1324481779      0.0006415939793      4.363634779e-17      4.304366388e-34          1.616680644          1.707750816          1.057835944         0.6685068976         0.2406730889         0.2047138516       -0.07056174475        0.05964719013 
                   1                    4          -1.22184604         0.5736625952         0.2146375856         0.2233205344       0.001081789969      7.357513451e-17       7.25758117e-34          2.692303809          2.521287317          1.772758638           1.12921405         0.4297972147         0.3595817159         0.1030279032         0.1989223994 
                   1                    1          14.91491221        0.03131377961        0.01171614483        0.01219010975      5.905027269e-05      4.016150898e-18      3.961602153e-35        0.04883059059       0.006818199124        0.07634669672        0.05192722884        0.05933553868        0.05864900463        0.07527644569         0.3086175505 
                   0                   34           0.03627336                   -0                   -0                   -0                   -0                   -0                   -0        0.03141668784        -0.1098968232        0.04535075089       -0.03533880951         0.4114579725        -0.1574388029         0.4925166361      -0.002624554256 
                   1                    1           -1.2733237         0.5572350607         0.2433932895         0.3048959963       0.007813167168      8.180428237e-13      7.761829956e-26          3.230650404          3.267814544          1.977576495          1.610581353         0.5173134585         0.4150151175        0.02616061377          0.150851122 
                   1                    1          15.04730015                   -0                   -0                   -0                   -0                   -0                   -0        -0.1104974755       -0.05760378437        -0.1272040598         0.0228830433        -0.1521213977        0.02320898779       -0.06594775431       0.000409916607 
                   0                   35           0.78726207        -0.1182136953       -0.09175163383        -0.1714159814         -0.162543206     -0.0001403410564     -5.857342861e-09         -1.386978881          -1.35193148        -0.4182714291         -1.188963777         0.1265559899        -0.2987969346        -0.1045286192        -0.1546350518 
                   1                    2          -0.05472478         0.1980543744          0.153720027         0.2871891016         0.2723237175      0.0002351263959      9.813350075e-09          2.412013157          2.796988424         0.8522224391           1.87485114        0.06046566679         0.5319942282        -0.1542009455        0.07666817861 
                   1                    1          14.96248349        0.01335105398        0.01036242892        0.01935971982        0.01835762862      1.585011799e-05      6.615282644e-10       -0.07775121581        -0.1942942277       -0.04855068132         0.1343898289         0.1673634757         0.2185994322         0.2674816036         0.5015026688 
                   0                   36           2.03436881        -0.4413940235        -0.1006235071       -0.04162410225     -5.792712496e-08     -1.081791053e-36     -3.836107671e-73         -0.867759367        -0.8040681676        -0.7144779987        -0.1730634906        -0.3912171678      -0.005577998559       -0.09984946191     -2.487974817e-06 
                   1                    3          -2.38987215         0.7937971782         0.1809599853        0.07485623538      1.041753759e-07      1.945478732e-36      6.898805336e-73          1.565076627          1.215011503          1.292731132         0.3076283623         0.7214375654        0.01074916467         0.3293856534      3.254295568e-06 
                   1                    1          14.91213236        0.02985956185       0.006807010684       0.002815800373      3.918672385e-09      7.318134167e-38      2.595062193e-74        0.05029686337         0.1188694123        0.04183825557       0.009690870923        0.02045411026      0.0009442567104       -0.06329924887      1.683073775e-07 
                   0                   37           2.85784997        -0.6641214092        -0.1742897357       -0.09916673466     -2.255475561e-06     -8.832531287e-30     -1.395751188e-59         -1.736225887         -1.508647767         -1.366413838        -0.4217952269        -0.7240924555       -0.03045072306        0.06268834943      -0.001516380915 
                   1                    4          -1.22184604         0.5708540695         0.1498129762        0.08524003782      1.938722928e-06      7.592115477e-30      1.199735823e-59          1.490020219          1.272873664          1.168006697         0.3677368778         0.5277934699        0.04190146591         0.3421196464       0.001618827633 
                   1                    1          14.91491221        0.03116047424       0.008177647557       0.004652887918       1.05826566e-07      4.144210077e-31      6.548843078e-61        0.06732673362        0.06546129222        0.05211011001        0.01781290356         0.0122048902       0.004378072024       -0.03708718668      0.0002003057601 
                   0                   38           4.29627356        -0.7091767466        -0.1220831632       -0.02302895094      -3.74652031e-11     -1.123147344e-52    -4.151769392e-105        -0.7290614002        -0.5740391283        -0.6504929897       -0.08722222836        -0.3818706406      -0.002220754254        -0.1728794915     -5.397918684e-06 
                   1                    1           -1.2733237         0.4123213341        0.07098017947        0.01338922606      2.178258467e-11      6.530073264e-53     2.413873696e-105         0.4230882418         0.3335779586         0.3749910696        0.05325974515         0.2068496509       0.001165972385         0.0640084454       7.86417542e-06 
                   1                    1          15.04730015                   -0                   -0                   -0                   -0                   -0                   -0       -0.00853907712        0.02178368073      -0.009418651695      0.0009549838528       -0.01672198734     -1.629743971e-05       -0.06073613991      7.971575357e-07 
                   0                   39           5.04726227        -0.7272111625        -0.1154454789       -0.01669986487     -2.903941166e-12     -5.418452537e-58    -1.122111993e-115        -0.6038598571        -0.4872199191        -0.5436935184       -0.06617604444        -0.3074155289     -2.008392537e-05       -0.04621016681     -6.510559183e-24 
                   1                    2          -0.05472478         0.1825942716        0.02898701811        0.00419314199      7.291458786e-13      1.360510461e-58     2.817492807e-116         0.1505764142          0.121489499         0.1347811647         0.0173579781        0.07052248654      8.479733932e-06        0.02217179322     -5.235608363e-24 
                   1                    1          14.96248349        0.01230887217       0.001954045421       0.000282664118      4.915249165e-14      9.171344315e-60     1.899301577e-117       0.006877791545       0.006800801674        0.00553177333       0.001480687789      2.339973143e-05      3.874035894e-07      -0.004667496187      1.101985845e-25 
                   0                   16          -5.66215043         0.5191727542        0.06885117213       0.005165975598       3.96017724e-15      6.098210287e-71     3.320343607e-141         0.2591870864         0.1928822623         0.2436052169        0.01707884149         0.1645783825      1.981118624e-06        0.06305752737      2.135009574e-33 
                   1                    4           1.25495396      -0.004690033508      -0.000621978526     -4.666770061e-05     -3.577492041e-17     -5.508919788e-73    -2.999487675e-143      -0.002344506124     -0.0004845977976      -0.002209230981     -0.0001482217813       -0.00165272642     -4.886363855e-08       0.001448640925      2.003364763e-33 
                   1                    1          14.91491221        0.01206161808       0.001599576511      0.0001200179019      9.200433773e-17      1.416759313e-72     7.713948039e-143       0.005478906102      0.0009285549567       0.005069834176      0.0004481578231       0.002861758474      4.662379148e-08      -0.001920819267      4.960135114e-35 
                   0                    8          -4.22372684         0.9092325462         0.1968793749        0.07160755061      3.252824998e-08      4.514180833e-39      3.503902196e-78          1.589980093          1.305941603          1.332700848         0.2905332657         0.7571656845        0.01180423565         0.2457207706      4.841445218e-06 
                   1                    1            1.2034763                   -0                   -0                   -0                   -0                   -0                   -0      -9.39226603e-05       -0.01858131301      0.0001175368182     -0.0002672360867     -0.0009694769653     -0.0002424748284        0.07276062594      1.086025178e-06 
                   1                    1          15.04730015                   -0                   -0                   -0                   -0                   -0                   -0       -0.02283428374        0.04021435136       -0.02605685846       0.003531372293       -0.05289060407      0.0002004758943        -0.1911854862      1.378726013e-07 
                   0                    9          -3.47273813         0.8266144332         0.2175321845         0.1244857262      2.978705767e-06      1.457567099e-29      3.042599382e-59          2.146145598            1.8621641          1.665117841          0.553036327          0.794276954        0.06526484172         0.2266425427        0.01006851118 
                   1                    2           2.42207522        -0.2870641656        -0.0755439205       -0.04323102729     -1.034435949e-06     -5.061795034e-30     -1.056624731e-59        -0.7508047587        -0.6599407045        -0.5886444642        -0.1856728786        -0.3570189195       -0.01101305145         0.1610129064      0.0009178040154 
                   1                    1          14.96248349        0.01998017833       0.005257991711       0.003008956665       7.19985885e-08      3.523099695e-31       7.35429673e-61        0.02754788366        0.04089733436        0.01433705231        0.01550727474       -0.03213819641       0.003135009937       -0.07170205692       0.002158731757 
                   0                   10          -2.22563139         0.5134971583         0.2192056073          0.267842239       0.005486699668      2.141429517e-13      5.920177508e-27          2.949259196          2.963152626           1.75537167           1.43529748         0.3334560201         0.4156456721        -0.1899568092         0.1067792776 
                   1                    3           0.08692785          0.253478603         0.1082068912         0.1322154864        0.00270841025      1.057078026e-13      2.922388761e-27          1.483346845          1.288715031         0.8848734713         0.6861112145         0.6144451512        0.05701472399         0.4958232807       -0.06752328682 
                   1                    1          14.91213236        0.03068576432        0.01309937454        0.01600582143      0.0003278763478      1.279683838e-14      3.537802864e-28         0.1246730059        0.08399416792        0.08104179964         0.0737183596         0.0414953487        0.07011196432          0.251341032        0.08991582652 
                   0                   11          -1.40215023         0.2235654731         0.1763473993         0.3316100353         0.3335356022      0.0003735224085      2.157750094e-08          2.747628162          3.084032033         0.8478667763          2.290006288       -0.07487773762         0.6321063697        -0.1107389157        0.09220354348 
                   1                    4           1.25495396      -0.008000861147      -0.006311041844       -0.01186751161       -0.01193642293     -1.336745287e-05     -7.722059514e-10       -0.08471219803       -0.06790329497       -0.02514933171       -0.08721198213       -0.07798317337        0.07562073087        0.04958500524        -0.2247698811 
                   1                    1          14.91491221        0.02057625629         0.0162304547        0.03052033473         0.0306975578      3.437781648e-05      1.985924674e-09        0.05582880131        0.01152971446        0.04852935909         0.1776957578         0.3630293002         0.3681895631          0.665978301         0.6175324181 
                   0                    1           0.78726207        -0.1159482227       -0.09223151734        -0.1740096049        -0.1803481903     -0.0002305481001     -1.571357938e-08         -1.395956108         -1.533162794        -0.4107185604         -1.211930103         0.1228863182        -0.3220237842        0.03204429071         -0.163934945 
                   1                    2           2.42207522        -0.1881444782        -0.1496603423        -0.2823583281        -0.2926436935     -0.0003741010511     -2.549778793e-08         -2.351770499         -2.631260487        -0.8048524182         -1.861115981       -0.03552728936        -0.5285400635        0.06153105554       -0.09008684432 
                   1                    1          14.96248349        0.01309519152        0.01041662697        0.01965264364        0.02036852343      2.603810092e-05      1.774691553e-09          -0.10323637      -0.006043047752       -0.05171192041         0.1382381884         0.1815664023         0.2324179107         0.2263657308         0.6249619372 
                   0                    2           2.03436881        -0.4321120886        -0.2062234898         -0.282222791       -0.01603507023     -5.614396171e-11     -4.279250582e-22         -2.927348955          -2.83640609         -1.669793732         -1.499746462        -0.6472165252        -0.3218506346        -0.3053111145        -0.1060303315 
                   1                    3           0.08692785         0.2414669844         0.1152389981         0.1577078912       0.008960499263      3.137360301e-11      2.391272451e-22          1.624471774          1.761258842         0.9371226859         0.8424980168        -0.1858198025         0.3963348037        -0.5364919329        0.02714798035 
                   1                    1          14.91213236         0.0292316546        0.01395067155        0.01909189621       0.001084745479      3.798044396e-12      2.894840905e-23         0.1150850391        0.08572370675         0.0921979631         0.0820456413        0.08920047653         0.1188385335         0.1886051973         0.1615629521 
                   0                    3           2.85784997         -0.667540213        -0.2495219689        -0.2592819394      -0.001241589445     -8.026163914e-17     -7.430260631e-34         -3.174854894         -3.042036812         -2.137107772         -1.254289289        -0.5352736758        -0.3818923051       -0.04292382242        -0.1482523216 
                   1                    4           1.25495396       -0.01217879678      -0.004552350991      -0.004730414717     -2.265191705e-05     -1.464316566e-18     -1.355598247e-35       -0.04098313041      -0.002998903387       -0.03829119504       -0.02362448534       -0.03637684891       -0.01898688812       -0.05022166993        -0.1157114272 