ITEM: TIMESTEP
0
ITEM: NUMBER OF ENTRIES
594
ITEM: BOX BOUNDS pp pp pp
0 4.26
0 2.4768
0 30
ITEM: ENTRIES c_2[1] c_2[2] c_2[3] c_2[4] c_2[5] c_2[6] c_2[7] c_2[8] c_2[9] c_2[10] c_2[11] c_2[12] c_2[13] c_2[14] c_2[15] c_2[16] c_2[17] c_2[18] c_2[19] c_2[20] c_2[21] c_2[22] c_2[23] 
                   0                   94           0.61667291        -0.0150463314      -0.001640490212     -5.340106388e-05     -1.156836901e-11      -1.07224667e-16     -4.621839203e-20     -6.260202497e-88    -3.794873597e-173       -0.00385376233      -0.003147009778      -0.003756648961     -0.0006896306005       -0.00306877124     -2.888951417e-07      -0.002632004021      7.874674399e-12      -0.001776615724      9.630308873e-31      -0.001768478754      2.858459614e-57 
                   1                    2          -5.01965365         0.1641944094        0.01790199314      0.0005827437872      1.262408402e-10       1.17009857e-15      5.043622515e-19      6.831500811e-87     4.141189054e-172        0.04219696076        0.03423762642        0.04117168128       0.007498355453        0.03380244499      2.614489941e-06        0.02914152123      3.653350897e-09        0.01906718819      1.161163533e-30        0.01621934139       1.70039193e-57 
                   1                    1          15.07484241      -0.002537846166     -0.0002766994614     -9.007091602e-06     -1.951222538e-12     -1.808545237e-17     -7.795599198e-21     -1.055900637e-88    -6.400766507e-174     -0.0006312849426     -0.0005140274584     -0.0006153930547     -0.0001114107428     -0.0005024812916     -4.415673375e-08     -0.0004329482347     -6.999356339e-11     -0.0003079536508     -4.701859165e-32     -0.0003002116849     -1.082004106e-58 
                   0                   77          -3.64332729         0.4973040501        0.07612735617       0.009717067665      3.701817959e-07      1.281678652e-10        5.9402144e-13      1.219434482e-60     9.066595771e-121         0.3741075485         0.3244303954         0.3556880164         0.1033518525         0.2456924899      0.0003120140997          0.191644029      1.112057568e-05        0.08943427345       1.30527084e-14        0.05320199456      -8.76582072e-26 
                   1                    2          -2.54285365         0.5085434904        0.07784789086       0.009936680599       3.78548179e-07       1.31064554e-10       6.07446765e-13      1.246994605e-60     9.271507557e-121         0.3833217967          0.333714819         0.3646551857         0.1056997309         0.2551908278      0.0002872538944          0.202240785      7.868672987e-06        0.08108634862      3.276795778e-14        0.02763379745      9.638315726e-25 
                   1                    1          15.07484241        -0.0130230773      -0.001993574039     -0.0002544642926     -9.694081804e-09     -3.356377281e-12     -1.555584985e-14     -3.193376268e-62    -2.374301547e-122      -0.008549988847      -0.007782155293      -0.008036507245      -0.002919204333      -0.005005599743     -9.702520227e-06      -0.003393586269     -1.875925152e-07      0.0007865549552     -1.136191053e-15       0.001829363102     -4.079614304e-26 
                   0                   78          -2.14929308         0.4580611988        0.09641938575         0.0325811567      5.260449366e-05      2.770845461e-07      7.819796185e-09      6.659584663e-41      1.581971068e-81          0.756815923         0.7369038071         0.6875991744         0.2901204177         0.4064761114         0.0217569165         0.2859389898        0.01877555024        0.09251212782        0.01870919519        0.05196751551        0.01847919897 
                   1                    3          -2.51723417         0.7821161792         0.1646311929        0.05563066651      8.981949508e-05      4.731077574e-07      1.335190392e-08       1.13709018e-40      2.701135067e-81          1.293011925          1.108594945          1.173210987         0.4606860592         0.6848095096        0.03682279674         0.4878456421        0.03106219887         0.2328050243        0.02452949187         0.2240116374        0.01856216746 
                   1                    1          15.06248453       -0.01758518298      -0.003701585171      -0.001250805796     -2.019511037e-06      -1.06374049e-08     -3.002056212e-10       -2.5566456e-42     -6.073260683e-83       -0.02084146711       -0.04892255542       -0.01864434712       -0.01653794024      -0.009251145846     -0.0008519058864        -0.0055304994      -0.001278187988        0.01000591708      -0.005001498996        0.02419194617      -0.008212597812 
                   0                   79          -1.51213407         0.2239444601        0.03539444761       0.005043683081      2.920076695e-07      1.366654277e-10      7.733828603e-13      8.381666819e-59     8.808958983e-117         0.1842314341         0.1617135702          0.175270158        0.05147848223           0.12471714      0.0002355749074        0.09937830981       5.91757324e-05        0.02298837992      4.058194578e-05      -0.008792038756      2.752601589e-05 
                   1                    4          -3.71216614         0.7108670236         0.1123526146          0.016010166      9.269201068e-07      4.338171427e-10      2.454949641e-12      2.660592962e-58     2.796228337e-116         0.5837512571         0.5098966369         0.5539695964         0.1660375271         0.3810876229      0.0008078323002         0.2938458583      0.0001792615074         0.1095607336      0.0001192097338        0.04894192658      8.250134611e-05 
                   1                    1          15.07265033       -0.01357997333      -0.002146316342     -0.0003058485201     -1.770732065e-08       -8.2873801e-12     -4.689787195e-14     -5.082635747e-60    -5.341745358e-118      -0.009652218262      -0.008478727487      -0.009088575508      -0.002886570813      -0.006078063367     -1.550635021e-05      -0.004792526146     -4.657940683e-07      -0.001885413698     -4.727868739e-07     -0.0003102036684     -6.607012602e-07 
                   0                   68           0.04415749                   -0                   -0                   -0                   -0                   -0                   -0                   -0                   -0     -0.0002539203164      -0.007419108554      0.0004771463479      -0.008636765018       0.008980145017       0.000453970292        0.01465330744      6.713110551e-05        0.04263720678     -0.0001053997534         0.0513968864     -1.771322521e-05 
                   1                    1          -3.72562898         0.8137120297         0.1388539779        0.02547174737      3.870552671e-06      3.640260861e-09      3.272168883e-11      3.518983774e-53     3.615938187e-106         0.8167128121         0.5950468792         0.7692735047         0.2217607004         0.5381858417       0.006481076213         0.4325740715       0.003679279362         0.2363241752      0.0004438863024         0.1993435003      3.212867401e-05 
                   1                    1          14.97827694                   -0                   -0                   -0                   -0                   -0                   -0                   -0                   -0       0.006072339709       0.003615560722       0.006250276716       -0.00101474768       0.007797922527      2.038334056e-05       0.008906892567       6.98959468e-06       0.009593274631     -1.777764649e-05       0.009648771776     -2.987667857e-06 
                   0                   69           0.61667291        -0.1332232794       -0.03380243913       -0.01789595656     -0.0001684374939     -3.236619667e-06     -2.159605463e-07     -5.235515738e-32     -2.558480172e-63         -0.324164849        -0.2738704467        -0.2803221077        -0.1345138616        -0.1247898685       -0.02143667343       -0.06986660141       -0.02189925955       -0.06961125803      -0.003315547897         -0.273218441      -0.001341266421 
                   1                    2          -2.54285365         0.8774639268         0.2226369228          0.117870213        0.00110939939      2.131772326e-05      1.422405978e-06      3.448328414e-31      1.685121451e-62          2.162396772          1.959277851          1.885394224         0.8733591134          1.119679492         0.1148887224         0.8788574722        0.05687702469         0.4324902421       0.006492685469          0.223437951       0.004229813468 
                   1                    1          15.07484241       -0.02247060628      -0.005701415731      -0.003018488928     -2.841014443e-05     -5.459166486e-07     -3.642579907e-08     -8.830679843e-33     -4.315356962e-64       -0.04424015225       -0.03526868837       -0.03772682211       -0.01562130617       -0.02227611823      -0.004563359324       -0.01675117577      -0.003912734493       -0.02288828962     -0.0005594745367       -0.05091594949     -0.0002262297629 
                   0                   70           2.11070712        -0.4389791326       -0.09444578245       -0.03378855278     -6.817471537e-05     -4.227850593e-07     -1.329933871e-08     -9.858250722e-40     -3.495640746e-79        -0.7677396828        -0.6276533419        -0.6959299475        -0.2450635965         -0.462723084        -0.0209160476         -0.379146005      -0.005962504851        -0.2351999162     -1.154862054e-06        -0.2527303476     -1.419263578e-11 
                   1                    3          -2.51723417         0.7955613075         0.1711639679        0.06123494998      0.0001235529474      7.662128096e-07      2.410237414e-08      1.786609488e-39      6.335145149e-79          1.392299287          1.255006973          1.261527489         0.4874780308         0.8194722998        0.03549903087         0.6455136253       0.008288872512         0.2520126515     -7.985874986e-08         0.1379752349     -4.455069204e-12 
                   1                    1          15.06248453       -0.01788748466      -0.003848468776      -0.001376813098     -2.777977551e-06     -1.722760993e-08     -5.419203318e-10     -4.017031688e-41     -1.424400742e-80       -0.02344136321       -0.01626168341       -0.02060357593       -0.01896341288      -0.008509614766      -0.001243695072      0.0005152359325     -0.0005633179108        0.04927210918     -1.305459249e-07        0.08899493488     -1.583074275e-12 
                   0                   71           2.74786613        -0.2660238832       -0.03609725815      -0.002960703208     -2.123351756e-08      -2.23031591e-12     -4.698147894e-15     -1.578458245e-69    -4.010379587e-138        -0.1410963708        -0.1319353266        -0.1365190832       -0.03030257437        -0.1068341828     -7.191236844e-05       -0.08900980781     -3.734189026e-06       -0.04567616994      -1.88749608e-10       -0.03800302334     -1.448568804e-15 
                   1                    4          -3.71216614         0.4860710402        0.06595585179       0.005409710099      3.879726076e-08      4.075167843e-12      8.584318093e-15      2.884112628e-69     7.327648006e-138         0.2576224116         0.2028599152         0.2491698354        0.05563827246         0.1939755337      0.0001404701624         0.1603207303      9.206898235e-06        0.07593758552      4.788519048e-10        0.05611777614      3.304689271e-15 
                   1                    1          15.07265033      -0.009285606928      -0.001259980669     -0.0001033438272     -7.411593853e-10     -7.784953974e-14     -1.639896167e-16     -5.509634188e-71     -1.39982952e-139      -0.004412850719        -0.0212454677      -0.004234070511      -0.002291896009      -0.002948506256     -1.883796661e-06      -0.002005963703     -4.988456893e-08       0.001707149723     -1.985095405e-12       0.003996080119      -2.79574003e-17 
                   0                   73           4.87667311        -0.2075155126       -0.02377409453     -0.0009690017348     -4.993479477e-10     -8.360426025e-15      -5.28275942e-18      -1.03287561e-82    -4.893569686e-164       -0.06345901406       -0.05229555712       -0.06172412665       -0.01238191747       -0.04934323875     -5.327329926e-06       -0.04162061758     -1.360500863e-08       -0.02552287125     -2.053160468e-28       -0.02075211465     -2.584261043e-53 
                   1                    2          -2.54285365         0.1619249012         0.0185509886      0.0007561146066      3.896425192e-10      6.523662454e-15      4.122151094e-18      8.059555596e-83     3.818465318e-164        0.04946898348        0.04084152911        0.04809883187       0.009666582808        0.03840002735      4.313470766e-06        0.03240439605      7.588032278e-09        0.02049586469     -5.965929288e-29        0.01744078998     -1.680049967e-53 
                   1                    1          15.07484241      -0.004146666991      -0.000475064499     -1.936302235e-05     -9.978192117e-12     -1.670617401e-16     -1.055624413e-19     -2.063937844e-84    -9.778547942e-166      -0.001195926093      -0.001072939096        -0.0011576911     -0.0002965305928     -0.0008812098542     -1.118430447e-07     -0.0007040207794     -3.241250776e-10     -0.0002742615473     -7.409623059e-30     -4.214401844e-05      -1.06983859e-54 
                   0                   50          -5.77213427          0.124066873        0.01332958868      0.0004050776057      6.694469873e-11      5.160375213e-16      1.975767674e-19      2.945533034e-88     1.207091341e-174        0.03023254451        0.02476467973        0.02951222026       0.005502118518        0.02420797337      1.727114879e-06        0.02069642584      3.957365445e-09        0.01272924985      1.644876861e-21        0.01047688137      3.031749344e-36 
                   1                    4          -1.23536614        0.05254525584       0.005645396153      0.0001715599492      2.835266366e-11      2.185540985e-16      8.367843519e-20      1.247502924e-88     5.112317398e-175        0.01281730144        0.01047319283        0.01251355949       0.002334892994         0.0102635338      6.811871927e-07       0.008767059997      1.698664175e-09       0.005268187111      3.433304769e-22       0.004146039051      6.930268222e-37 
                   1                    1          15.07265033      -0.002013071537     -0.0002162818722     -6.572666647e-06     -1.086224423e-12      -8.37306866e-18     -3.205820838e-21     -4.779332764e-90    -1.958589882e-176     -0.0004745369241     -0.0004076124672       -0.00046224088     -9.854961526e-05     -0.0003715028878     -2.870949045e-08     -0.0003109304704     -4.869129944e-11     -0.0001589670238     -2.348210567e-24     -9.552533618e-05     -8.476759729e-39 
                   0                   42          -4.21584271         0.7091767466         0.1220831632        0.02302895094      3.894688774e-06      3.958702083e-09       3.74652031e-11      1.123147344e-52     4.151769392e-105         0.7274588159         0.6247413781         0.6823767866         0.2123936729         0.4602803731       0.005874822619         0.3612569228       0.003128509294         0.1756451181      0.0001021965133         0.1363714185      1.371791965e-06 
                   1                    1          -1.24882898         0.4123213341        0.07098017947        0.01338922606       2.26440486e-06      2.301622737e-09      2.178258467e-11      6.530073264e-53     2.413873696e-105         0.4227726641         0.3551697902         0.3971080188         0.1161108934          0.277005534       0.003963571024         0.2217771553       0.001782696033         0.1330494706      1.279285544e-05         0.1277281808     -3.225241308e-07 
                   1                    1          14.97827694                   -0                   -0                   -0                   -0                   -0                   -0                   -0                   -0       0.006579370799       -0.03180800775       0.006871048899      -0.009676304164       0.009498137797        1.5168345e-05        0.01179010184     -4.592320521e-06        0.02294789562      -5.29746337e-06        0.03706958254     -1.272635295e-07 
                   0                   43          -3.64332729         0.8462819677         0.2075457252          0.101904937      0.0007124571907      1.100120665e-05      6.346879335e-07      8.449144775e-33      1.099275689e-65          1.938957289          1.754671955          1.701787922         0.7843457283          0.978568936        0.08334480895         0.7388889172        0.03610376281         0.3273160436       0.004469380898         0.2465812858       0.002769693113 
                   1                    2          -0.06605365         0.2969801394        0.07283265005        0.03576082622      0.0002500178946      3.860580761e-06       2.22726843e-07      2.965002551e-33      3.857615545e-66         0.6833725015         0.6349727661         0.6005434877         0.2767785893         0.3863949598        0.02541360684         0.3140470783       0.003574599367        0.02480738877        0.00117913576        -0.2146434879      0.0004280091299 
                   1                    1          15.07484241       -0.02216188563      -0.005435073416      -0.002668620678      -1.86573688e-05     -2.880924949e-07     -1.662079771e-08     -2.212607468e-34     -2.878712183e-67       -0.04059920731       -0.03949466698       -0.03439441139       -0.02111756151       -0.01485333195      -0.003227216081      -0.005413495271      -0.002037715359        0.01150674392     -0.0002112136882       0.009640980852     -0.0002282335158 
                   0                   44          -2.14929308         0.4987501257          0.212019577         0.2578606383        0.06694798526        0.01488635483       0.005066137004      1.644859573e-13      3.612932846e-27           2.93189657          2.940007069          2.133460222          1.933266186         0.6496587459         0.5820728904         0.2930987725         0.4190448144        -0.1039723401         0.1429150001        -0.2021884913         0.1215524169 
                   1                    3          -0.04043417         0.2884119007         0.1226044186         0.1491128984        0.03871396654       0.008608322426       0.002929591647      9.511718423e-14      2.089248254e-27          1.706167208          1.624910497          1.257055286          1.005679857         0.6240335082         0.2381824611         0.5477725613        0.08000506644         0.3211119934         0.0631827615         0.4046613033        0.05997879794 
                   1                    1          15.06248453       -0.01914724985      -0.008139530407      -0.009899390124      -0.002570164366     -0.0005714941023     -0.0001944913615     -6.314692588e-15     -1.387021764e-28       -0.03551485691      -0.005243201177       -0.02198022963       -0.04080535846       -0.01382715584       -0.04763020608       -0.00594026002       -0.05481521224       -0.04591263598       -0.06407900374       -0.08330791774        -0.1092332369 
                   0                   45          -1.51213407         0.3711846996         0.1335461279         0.1316649948        0.01471106139       0.001753270363       0.000393965557      3.211399185e-18      2.235610543e-36           1.67081982          1.555501501          1.298076545         0.9540044623         0.5371644197         0.2715156328         0.2873787668         0.2317991402         0.0140157112         0.2377119284         0.1011069254         0.2726175599 
                   1                    4          -1.23536614         0.5875204154         0.2113801475          0.208402643        0.02328503548        0.00277512013      0.0006235785256      5.083082856e-18      3.538580217e-36          2.686123507          2.658191278          2.080823768          1.561516811         0.8099362226         0.4126443258         0.4659569666         0.3148003966        0.08646497552         0.1077175279      -0.002395050178       0.008768493361 
                   1                    1          15.07265033       -0.02250860913      -0.008098226024      -0.007984154269     -0.0008920775321     -0.0001063181681     -2.389003842e-05     -1.947389779e-19     -1.355672363e-37       -0.05262226912       -0.03057533116       -0.03459758931       -0.03307864518       -0.03092262977       -0.03099008167        -0.0331809359        -0.0472654218       -0.03353435045        -0.1502218797       -0.04995574859        -0.2183734106 
                   0                   34           0.04415749                   -0                   -0                   -0                   -0                   -0                   -0                   -0                   -0        0.02311059071        -0.1200874595        0.04695935803        -0.1678897629          0.263051264       -0.08414378967         0.4444443717         -0.176142093         0.7812455464         -0.123332895         0.6801490896       -0.02110311894 
                   1                    1          -1.24882898         0.5572350607         0.2433932895         0.3048959963        0.08916197783        0.02165100651       0.007813167168      8.180428237e-13      7.761829956e-26          3.299391558          3.371402415          2.455613743          2.187167824         0.9196145569         0.6768771086         0.5974365324         0.4715980434         0.1146259681         0.1874796446        0.04445861239         0.1559788652 
                   1                    1          14.97827694                   -0                   -0                   -0                   -0                   -0                   -0                   -0                   -0        0.08736737588         0.0430102364          0.102391868       -0.03416476986         0.1351960647       -0.02308799275         0.1660824642       -0.03429744185          0.158291377       -0.02193077861         0.1223911736      -0.003604318352 
                   0                   35           0.61667291       -0.08758675734       -0.07047927865        -0.1335637919        -0.2083342663        -0.1748908833         -0.144136247     -0.0002202186992     -1.875584319e-08         -1.150294898         -1.251954559        -0.5388672369          -1.05063359        0.01299001772        -0.6325549368       -0.05866517522        -0.5400357564          -0.67454184       -0.01658340315       -0.07219191899         0.3282564856 
                   1                    2          -0.06605365         0.1979674622         0.1593003823         0.3018867889         0.4708863215         0.3952961085         0.3257831195      0.0004977480425      4.239278621e-08          2.613977438          2.801701096          1.396726229          2.419204355        0.03955024158         0.8899111047       -0.09311482665         0.4780956184        -0.4091446879         0.1928078451        -0.1233061051         0.2502206708 
                   1                    1          15.07484241       -0.01477315037       -0.01188765303        -0.0225280401       -0.03513948382       -0.02949862966       -0.02431128307     -3.714401648e-05     -3.163524946e-09       -0.08718455195         -0.055758718        0.03088280352       -0.01676182464        -0.2395018506        -0.2740149285        -0.3444877281        -0.2662070751        -0.4388647147        -0.2896735347        -0.4114266553         -0.340494845 
                   0                   36           2.11070712        -0.4603412311        -0.2059273634        -0.2644992284       -0.08555254056       -0.02238412209      -0.008489131033     -2.397175657e-12     -7.858874527e-25         -2.938463821         -2.876951322           -2.1323599         -1.848166511        -0.8554705033        -0.5111984859        -0.5871927783        -0.2766723341        -0.2736084509        -0.0966065421        -0.3219121898       -0.06933776845 
                   1                    3          -0.04043417         0.2825478751         0.1263939335         0.1623441263        0.05251037037        0.01373890867       0.005210452101       1.47133657e-12      4.823613763e-25          1.777430023          1.828168575          1.284444005          1.267718156         0.2179195979         0.3670346047       -0.03090606115         0.3297223004        -0.3286586093         0.1359415046        -0.4688023396         0.1263927438 
                   1                    1          15.06248453       -0.01875794565      -0.008391110832       -0.01077779225      -0.003486087706     -0.0009121063186     -0.0003459143953     -9.767991148e-14     -3.202327563e-26       -0.04929204921       -0.02989709433       -0.02531319497        -0.0475068247       -0.01210268794       -0.04828877638       -0.00485598654       -0.05437575315       -0.06083613371       -0.06892335384       -0.09750364508        -0.1080769867 
                   0                   37           2.74786613        -0.6406673947        -0.1721693483        -0.1028812639      -0.001563032382     -4.272744913e-05     -3.604265644e-06     -9.408314058e-29     -1.590865041e-57         -1.769469179         -1.639317146         -1.525239833        -0.7674473383        -0.8889271121       -0.09713957177        -0.6784812646        -0.0348643813       -0.09741861204      -0.004433103271         0.1693995349      -0.001527963288 
                   1                    4          -1.23536614         0.5837092715          0.156862743        0.09373467124       0.001424071992      3.892879271e-05      3.283830722e-06       8.57187394e-29      1.449430207e-57          1.609624126          1.459438837          1.385840927         0.6989249447         0.7215014812        0.08554165861          0.507485015        0.04353679075         0.3502648787       0.006285116423         0.4268676016       0.003552564893 
                   1                    1          15.07265033       -0.02236259965      -0.006009599115      -0.003591087257     -5.455789961e-05     -1.491408564e-06     -1.258074787e-07      -3.28398733e-30     -5.552940312e-59       -0.04799864075       -0.04776246259         -0.039581267       -0.02727447203       -0.01502225951      -0.005164368534      -0.001243548324      -0.003100905953        0.01567683576     -0.0005728676739         0.0125682493     -0.0004928871482 
                   0                   38           4.30415769        -0.7091767466        -0.1220831632       -0.02302895094     -3.894688774e-06     -3.958702083e-09      -3.74652031e-11     -1.123147344e-52    -4.151769392e-105        -0.7287677707        -0.6141194365        -0.6853894602        -0.2048227393        -0.4666188003      -0.003987361439        -0.3657503689       -0.00133973102        -0.2098885075     -7.198778483e-05        -0.1861320705     -2.023913655e-06 
                   1                    1          -1.24882898         0.4123213341        0.07098017947        0.01338922606       2.26440486e-06      2.301622737e-09      2.178258467e-11      6.530073264e-53     2.413873696e-105         0.4241032573         0.3811464916         0.3978997791         0.1314885383         0.2625971317       0.001665721501         0.2021845501      0.0006220802024        0.07724416952      5.177112645e-05        0.03968723526      2.179058326e-06 
                   1                    1          14.97827694                   -0                   -0                   -0                   -0                   -0                   -0                   -0                   -0       0.006585484588       -0.01974548549       0.006910283906      -0.008054742793       0.009554519232     -4.639943248e-06        0.01166941339      8.465271222e-06        0.02341065664     -1.049929342e-06        0.03779794541     -1.061210891e-07 
                   0                   39           4.87667311        -0.7728496029        -0.1296624501       -0.02252390525     -2.777569996e-06     -2.245374894e-09     -1.825520085e-11     -2.662801966e-54    -2.257892877e-108        -0.7449291771        -0.6547377176        -0.7015477774        -0.2244846388         -0.466741779      -0.001282860347        -0.3606514804     -4.947021237e-05        -0.1304532042     -4.748484339e-13       -0.04626940906     -5.660327586e-23 
                   1                    2          -0.06605365         0.2069494506        0.03472030355       0.006031328474      7.437625412e-07      6.012542401e-10      4.888278096e-12      7.130305842e-55      6.04606237e-109         0.1991807623         0.1746008321          0.187088826        0.06095345428         0.1212911761      0.0003277088947        0.09214144386      1.374799287e-05         0.0447762241     -2.217893788e-13        0.02888204743     -5.906267022e-23 
                   1                    1          15.07484241       -0.01544342347      -0.002590972575     -0.0004500826625     -5.550263533e-08     -4.486807681e-11     -3.647835183e-13     -5.320928965e-56    -4.511821668e-110       -0.01258777494       -0.01139287964       -0.01162350013      -0.004567813619      -0.006778566592     -3.890562758e-05      -0.004736045292     -1.288121452e-06     -9.776120464e-05     -9.201319652e-15       0.000650989294     -1.025377585e-24 
                   0                   40           6.37070732       -0.03472918012      -0.003559614976     -8.619002174e-05     -5.623298184e-12     -2.278547093e-17     -5.773665879e-21     -5.117812689e-93     -3.09925019e-183      -0.006953068368      -0.005794307187      -0.006792199542      -0.001322795876      -0.005585671843     -3.527813215e-07      -0.004751066355     -1.234146545e-09      -0.002386776887      -2.56708213e-26      -0.001468628091     -2.602301264e-46 