ITEM: TIMESTEP
0
ITEM: NUMBER OF ENTRIES
576
ITEM: BOX BOUNDS pp pp pp
0 4.26
0 2.4768
0 30
ITEM: ENTRIES c_2[1] c_2[2] c_2[3] c_2[4] c_2[5] c_2[6] c_2[7] c_2[8] c_2[9] c_2[10] c_2[11] c_2[12] c_2[13] c_2[14] c_2[15] c_2[16] c_2[17] c_2[18] c_2[19] c_2[20] c_2[21] c_2[22] c_2[23] 
                   0                  101           6.29033333      -0.001564471889     -0.0001581025109     -3.568016996e-06     -1.716024668e-13     -5.572107907e-19      -1.22174709e-22     -7.959581695e-96    -2.551225805e-187     -0.0002994750809     -0.0002490715033     -0.0002930130836     -5.499316837e-05     -0.0002434819947     -6.659832099e-09     -0.0002087814671     -9.685794947e-12     -0.0001120949947     -1.519386485e-29     -6.989500697e-05     -9.934611434e-52 
                   1                    3          -4.98316009       0.004617845006      0.0004666705074      1.053170055e-05      5.065182695e-13      1.644716715e-18      3.606225675e-22      2.349426335e-95      7.53044233e-187      0.0008839362234      0.0007352425706      0.0008648651586      0.0001623715289      0.0007186652293      1.987531947e-08      0.0006161756846      2.931096907e-11      0.0003304702226      4.241969816e-29      0.0002060104076      2.517099475e-51 
                   1                    1          14.95682716      4.249447853e-05      4.294410018e-06      9.691514602e-08      4.661098348e-15      1.513506388e-20      3.318532331e-24       2.16199649e-97     6.929687322e-189      8.116630308e-06      6.760470206e-06      7.940641625e-06        1.5007461e-06      6.590699925e-06      1.824020276e-10      5.642835416e-06      2.641712157e-13      2.980505036e-06      4.106003607e-31      1.815425262e-06      2.662567578e-53 
                   0                   68           4.20679531                   -0                   -0                   -0                   -0                   -0                   -0                   -0                   -0      -0.000839195113      -0.005681242785      9.480010897e-05      -0.007025172696       0.007427143621      0.0004767857211        0.01002651317      0.0001269582344        0.03152935163     -1.382392979e-05        0.04327213318     -2.019683248e-06 
                   1                    1           -3.7867898         0.8137120297         0.1388539779        0.02547174737      3.870552671e-06      3.640260861e-09      3.272168883e-11      3.518983774e-53     3.615938187e-106         0.8178937039         0.5985827377         0.7706037439         0.2265398938         0.5306806347       0.004265875139         0.4192554017        0.00163223269          0.222755218      0.0001377712046          0.187791032      6.725333317e-06 
                   1                    1          15.01342061                   -0                   -0                   -0                   -0                   -0                   -0                   -0                   -0      -0.004786761035      -0.003075027964      -0.004961194565      0.0007073832417        -0.0062512413     -6.801291993e-06      -0.006941978961     -9.927478538e-06      -0.006645783841      1.767553743e-06      -0.006770736764      2.582405101e-07 
                   0                   70           2.03033313         0.4633427215        0.09998112848        0.03604103015      7.490656394e-05      4.747300447e-07       1.51504463e-08      1.497592382e-39      7.608188933e-79         0.8091230181         0.7901851591         0.7338294797         0.3049496758         0.4226181113        0.01913925507         0.3027832167        0.01591419965         0.1348892598        0.01590154719         0.1148991479        0.01611453155 
                   1                    3          -2.50636009         0.7819739457         0.1687360865        0.06082570254      0.0001264182616       8.01192096e-07      2.556909545e-08      2.527455747e-39       1.28401834e-78          1.365685599          1.148270031           1.23722262         0.4955524776          0.709379506        0.03239409714         0.5109953698        0.02650487745          0.242953801        0.02310638639         0.2226666528        0.01993775366 
                   1                    1          14.95682716        0.01204806745       0.002599758933      0.0009371567566      1.947757659e-06      1.234416628e-08      3.939494254e-10      3.894114052e-41      1.978319053e-80        0.01263457198          0.220403112        0.01125552655        0.02897294662       0.004533569521      0.0004459017091       0.002036144451      0.0006674964065        -0.0130869401        0.00318905236       -0.02869814698       0.005819675406 
                   0                   71           2.79201793         0.2219679194         0.0368090198       0.006156674185      6.568597106e-07      4.781377246e-10      3.626148648e-12      1.325964358e-55     1.998062179e-110         0.2077718413         0.1827916391         0.1966166398        0.06043722994         0.1361423294      0.0003254726099         0.1075353814      9.312217852e-06        0.02753981122      1.851811574e-13       -0.00496785077      1.872000687e-23 
                   1                    4          -3.66806539         0.7585555794         0.1257915442        0.02103988525      2.244759512e-06      1.633993055e-09      1.239203979e-11      4.531365004e-55       6.8281994e-110         0.7091299798         0.6215716528         0.6690931501         0.2101288565         0.4487419396       0.001107619473         0.3465627031      3.801113646e-05         0.1352267801      1.354398399e-13        0.05850964814       3.87166016e-24 
                   1                    1          14.94349856        0.01097024322       0.001819199373      0.0003042791652      3.246374884e-08      2.363083433e-11      1.792138825e-13      6.553267493e-57      9.87495316e-112       0.008556332037       0.007526737454       0.007966689248       0.002699570598       0.005140388058      2.302534517e-05       0.004162356443      6.409908881e-07        0.00202887333      6.244003769e-15      0.0006517220375      5.737934956e-25 
                   0                   73           4.90717337        -0.0289579141      -0.003301844203     -0.0001317643102     -6.264360953e-11     -9.925036016e-16     -6.050560436e-19     -5.937734135e-84    -1.199060727e-165      -0.008712890848      -0.007208291616      -0.008470819667      -0.001671055024      -0.006796843703     -8.950031414e-07      -0.005767076836      3.396050268e-10      -0.003921777373      7.311293726e-29      -0.003861544633      6.481758746e-54 
                   1                    2          -4.93674391         0.2523582701        0.02877443756       0.001148280683      5.459175297e-10      8.649327817e-15      5.272855494e-18       5.17453125e-83     1.044940218e-164        0.07611704693        0.06262379023        0.07408923831         0.0145592464        0.05967378367      6.341111676e-06        0.05067352558       1.29887956e-08        0.03142786924      6.722398323e-29        0.02588396594      3.116817243e-54 
                   1                    1          14.92386895       0.003702613525      0.0004221800286      1.684763327e-05       8.00973009e-12      1.269033828e-16      7.736360715e-20      7.592098879e-85     1.533141666e-166       0.001085717018       0.000895352028       0.001055792418      0.0002047298913      0.0008468453119      1.006318863e-07      0.0007226268639      2.298711086e-10      0.0005254023052      2.342528519e-30      0.0005001237486      1.610041023e-55 
                   0                   74           6.29033333        -0.4488149353       -0.09844012321       -0.03699599842     -9.050893082e-05      -6.46437986e-07     -2.233622754e-08     -1.076651338e-38     -3.959246092e-77        -0.8187796046        -0.7534834586        -0.7402339006        -0.2926083527        -0.4780540685       -0.02210817938        -0.3760310567      -0.005275134617         -0.162495108     -1.470719914e-06       -0.09159038649      -5.84043069e-08 
                   1                    3          -2.50636009         0.7912376304         0.1735448705        0.06522204103      0.0001595625866      1.139636897e-06      3.937761951e-08      1.898080894e-38      6.979947079e-77          1.442490715          1.244948348          1.304255083         0.4898304988         0.8484665877        0.03967540776         0.6753738074        0.01022889755         0.3271705343      5.339284387e-06         0.2822246885      1.615619391e-07 
                   1                    1          14.95682716        0.01219079535       0.002673849067       0.001004892239      2.458420534e-06      1.755866967e-08      6.067007965e-10      2.924420533e-40       1.07541784e-78        0.01446290666        0.06393017987        0.01219373244        0.02807010877      0.0009547625561      0.0009673240166      -0.008516889125       0.000469770831       -0.06653670805      1.334495464e-07        -0.1250102696      1.587144016e-09 
                   0                   75           7.05201813         -0.286619087       -0.03918242104       -0.00330688585     -2.640602705e-08     -2.993192923e-12     -6.630200178e-15     -6.016537116e-69    -5.276516564e-137        -0.1553016681         -0.120915848        -0.1501682418       -0.03274547098        -0.1165392155     -7.233563948e-05        -0.0961771654     -1.835329211e-06       -0.04796985976     -3.755169005e-18        -0.0389310785      7.618604554e-35 
                   1                    4          -3.66806539         0.4870506512        0.06658252905       0.005619377704      4.487165459e-08      5.086320585e-12      1.126667225e-14       1.02238771e-68     8.966363181e-137         0.2637694113         0.2218567014         0.2550339488        0.05729020525          0.198033629      0.0001234907479         0.1637064454       3.02890251e-06        0.08136270665      7.376908505e-18        0.06514584923      2.974608581e-32 
                   1                    1          14.94349856       0.007043734497       0.000962917626      8.126753242e-05      6.489346038e-10      7.355845164e-14      1.629387987e-16      1.478578782e-70     1.296716912e-138       0.003345409414       0.006116339943       0.003194626621       0.001983875759       0.002086526774      1.492334926e-06       0.001244114634      3.677654011e-08      -0.002397674391      2.453712998e-19      -0.005246063709      1.371872917e-33 
                   0                   42          -0.05320489         0.7091767466         0.1220831632        0.02302895094      3.894688774e-06      3.958702083e-09       3.74652031e-11      1.123147344e-52     4.151769392e-105         0.7276703464         0.6364875258         0.6835830206         0.2144569589         0.4605524241       0.003946051186         0.3596897743       0.001654581411         0.1705012283      7.528636295e-05         0.1261900854      1.615078687e-06 
                   1                    1           -1.3099898         0.4123213341        0.07098017947        0.01338922606       2.26440486e-06      2.301622737e-09      2.178258467e-11      6.530073264e-53     2.413873696e-105         0.4222732561         0.3344945675          0.397510199         0.1109164055         0.2761424772       0.002942850007         0.2192263107       0.001095009188         0.1412925984      2.583152177e-05         0.1408089573      9.189007794e-08 
                   1                    1          15.01342061                   -0                   -0                   -0                   -0                   -0                   -0                   -0                   -0      -0.005121999182        0.02169057831      -0.005340214658       0.006742311203      -0.007253385167     -4.480143853e-06      -0.008879568846     -8.582647618e-06       -0.01703296227      1.746993676e-06       -0.02652578213      8.249087362e-08 
                   0                   45          -1.46798227         0.2337485213        0.02664018687       0.001060920725      5.004308019e-10      7.886055718e-15      4.790760378e-18       4.39595132e-83     8.169383359e-165         0.0704017252        0.05803214764        0.06851791232        0.01356473423         0.0550733193      6.199664662e-06        0.04660551764      4.158343728e-08        0.02881099249      7.894242509e-18        0.02398081413      7.992742249e-30 
                   1                    4          -1.19126539        0.09713097555        0.01106996239      0.0004408509812      2.079471207e-10      3.276941735e-15      1.990734429e-18      1.826676968e-83      3.39467463e-165        0.02928956506        0.02413661259        0.02851597645       0.005654893794        0.02293628552       2.32299911e-06        0.01939435445      1.261816216e-08        0.01159840315      1.861397002e-18       0.009023171981      2.210614076e-30 
                   1                    1          14.94349856       0.002880143859      0.0003282483678      1.307218669e-05      6.166082646e-12      9.716842192e-17      5.902958873e-20      5.416492958e-85     1.006594573e-166       0.000810853987      0.0007370036885      0.0007853691945      0.0002031721199      0.0006026699371      7.391574623e-08       0.000485780499      6.632973862e-11      0.0001741212709      5.895796544e-22     -1.138248087e-05      2.280832827e-32 
                   0                   34           4.20679531                   -0                   -0                   -0                   -0                   -0                   -0                   -0                   -0        0.01344977467       -0.08432212066        0.03044846144        -0.1338236763         0.2654461112       -0.05454712357         0.3621317803        -0.1432322802         0.4614873831       -0.07047953649         0.5613940632      -0.007556459612 
                   1                    1           -1.3099898         0.5572350607         0.2433932895         0.3048959963        0.08916197783        0.02165100651       0.007813167168      8.180428237e-13      7.761829956e-26          3.309309089          3.381289502          2.482032042          2.193277236         0.8930088699         0.6364489324         0.5381703541         0.4304361666        0.07294795924         0.1723733021        0.03345052333          0.150503785 
                   1                    1          15.01342061                   -0                   -0                   -0                   -0                   -0                   -0                   -0                   -0       -0.06804115518       -0.03775516315       -0.08012915685        0.02522205409        -0.1106947735        0.01577223623        -0.1286490881        0.02212245088       -0.08918509465        0.01057111723       -0.08203223298       0.001105958717 
                   0                   35           0.64717317         0.5442967664        0.08891488637        0.01415498359      1.250367816e-06      7.939582239e-10      5.499909855e-12      3.320012115e-56     5.277409511e-112         0.4888854621         0.4269197356         0.4614874277         0.1433849433         0.3091248721      0.0007198609397         0.2392378893        3.0164123e-05          0.107268383      3.290073242e-14        0.06164579832     -1.164521074e-23 
                   1                    2          -2.45994391         0.5545618206        0.09059175859        0.01442193663      1.273948874e-06      8.089317176e-10      5.603634287e-12      3.382625208e-56     5.376937742e-112         0.4983971187         0.4370819278         0.4709974467         0.1459127702         0.3199189329      0.0007159610956         0.2503061901      2.729592021e-05         0.0892387728       3.31882592e-13        0.02301384975      3.552729274e-23 
                   1                    1          14.92386895        0.01369321716       0.002236887894      0.0003561058529      3.145629203e-08      1.997410796e-11      1.383647022e-13      8.352363942e-58     1.327671207e-113        0.01129929203        0.01001240367        0.01062008508       0.003517966534       0.007017493913      2.448393655e-05       0.005293737551      7.711735941e-07       0.001240982579      1.062658641e-14      3.027546364e-05      1.263501731e-24 
                   0                   36           2.03033313         0.4903526077         0.2134347602         0.2663717267        0.07673455126        0.01842720435       0.006600750218      5.961121731e-13      4.701851297e-26          2.976409989          2.977188507          2.167493516          1.981159688         0.6407510723         0.5666892446         0.2941380102         0.4097552667        -0.1203445389         0.1609845439        -0.2156259388         0.1551261914 
                   1                    3          -0.02956009         0.2695398509         0.1173220506         0.1464207478        0.04217989092        0.01012917202       0.003628338468      3.276743791e-13      2.584540752e-26          1.670694592          1.606278373          1.217963926         0.9756162206         0.6256274672         0.2470888656         0.5198130586        0.07681573275         0.3578699934        0.03254954188         0.4582722404     -0.0001030985924 
                   1                    1          14.95682716        0.01275039192       0.005549836583       0.006926329865       0.001995289893      0.0004791533147      0.0001716359838      1.550040464e-14      1.222598714e-27        0.01359527528      -0.003039899813       0.003274209974        0.03099056633      -0.003439574172        0.03460132462       -0.01067734395         0.0390658498        0.01744877482        0.04542834169        0.03838026673        0.07529518482 
                   0                   37           2.79201793         0.3319939466         0.1281442649         0.1388728517        0.02267683466       0.003577962343      0.0009690487452      3.289299633e-16      2.418978045e-32          1.664146783          1.537302954          1.274358598          1.004049398         0.4768361158         0.2808597685          0.260383069         0.2310149192        0.03078147696         0.2072818521        0.03623653372         0.2533550587 
                   1                    4          -1.19126539         0.5533498291         0.2135840361         0.2314658732        0.03779654032        0.00596355708        0.00161515884       5.48242945e-16      4.031823777e-32          2.826928411          2.840546166           2.14627438          1.713222673         0.7644739183         0.4594875572          0.425011944         0.3559689487        0.06464037634          0.179128087        0.03496517083         0.1017842829 
                   1                    1          14.94349856        0.01640802126       0.006333229399       0.006863464611       0.001120749306      0.0001768323874      4.789295883e-05      1.625659108e-17      1.195523099e-33        0.01094217028        -0.2654510367        0.01017421576       0.001665052421        0.02387284951        0.02698232962        0.03196893162        0.04183562084         0.0368666173         0.1527372268        0.05520375527         0.2641822614 
                   0                   38           8.46679551        -0.7091767466        -0.1220831632       -0.02302895094     -3.894688774e-06     -3.958702083e-09      -3.74652031e-11     -1.123147344e-52    -4.151769392e-105        -0.7283904288        -0.6185876929        -0.6858497938        -0.2000251065        -0.4775033273      -0.005087138793        -0.3824006684      -0.002496319623        -0.2220260082     -0.0002901598537        -0.1979326137     -1.994285876e-05 
                   1                    1           -1.3099898         0.4123213341        0.07098017947        0.01338922606       2.26440486e-06      2.301622737e-09      2.178258467e-11      6.530073264e-53     2.413873696e-105         0.4240743565         0.3552146036         0.3984220216         0.1233735975          0.268075575       0.002380048463         0.2082045117       0.001314515786        0.08848011192      0.0002405827183        0.05997506829      2.633839673e-05 
                   1                    1          15.01342061                   -0                   -0                   -0                   -0                   -0                   -0                   -0                   -0       -0.00516050564        0.04408876023      -0.005417888122       0.009682082314      -0.007744091713     -7.583483704e-06      -0.009676837926     -8.847343017e-06       -0.01805558608      7.140965152e-06       -0.02895080477      1.464670447e-06 
                   0                   39           4.90717337        -0.1653570495       -0.04384887176       -0.02549455972     -0.0003475277931      -8.77098252e-06     -7.015984875e-07      -6.34410204e-30     -2.852351501e-59        -0.4418648168        -0.3870749633        -0.3800673716        -0.1921701002        -0.1630170633       -0.02449533574       -0.09253357401       -0.02164759292          -0.16897583      -0.003659641838        -0.3780785775      -0.002935315306 
                   1                    2          -2.45994391          0.856265199         0.2270617613         0.1320179836       0.001799596424      4.541860849e-05      3.633073826e-06      3.285154042e-29       1.47702764e-58          2.302544231          2.109058089          1.990674955         0.9777662746          1.141622976          0.126967412         0.8647926441        0.05621553028         0.3085135853       0.008738522243        0.09534166571       0.005166579202 
                   1                    1          14.92386895        0.02114286429       0.005606599463       0.003259782501      4.443555923e-05      1.121474371e-06      8.970770616e-08      8.111688549e-31      3.647070438e-60         0.0497094802        0.04141515926        0.04268888877        0.01767069065        0.02570046425       0.004598061497        0.01992389045       0.003240982453        0.03567318337       0.000468934727        0.05578448075      0.0003753151503 
                   0                   40           6.29033333        -0.4619296709        -0.2089148158        -0.2713556952       -0.09181874105       -0.02483916163      -0.009631893655       -4.2395126e-12     -2.420333184e-24         -2.974196744           -2.8928468         -2.149687563         -1.863801794        -0.8989330142        -0.5650863979        -0.6847183767        -0.3320965456        -0.3679085385       -0.09771702974         -0.367056141        -0.1243514903 
                   1                    3          -0.02956009         0.2652406287         0.1199591638         0.1558127995        0.05272244269         0.0142626795       0.005530646091      2.434333748e-12      1.389758519e-24          1.701831068          1.815394182          1.197056958          1.258348731         0.1865194591         0.4030961227        -0.1151401709         0.3867560988        -0.4868900691         0.2072087712         -0.572933203        0.08131286753 
                   1                    1          14.95682716        0.01254702025       0.005674583361       0.007370614225       0.002493997844      0.0006746859612      0.0002616232998      1.151544354e-13      6.574154333e-26       -0.01391053519       -0.04742331671      -0.007265489708         0.0331174055       -0.01725616108        0.04009515214       -0.03237807845        0.05157371048        0.01958500257        0.06845449398        0.06270983907        0.08680871549 
                   0                   41           7.05201813        -0.6716635189        -0.1780313329          -0.10341653      -0.001404643342     -3.535669363e-05      -2.82322179e-06     -2.464440192e-29     -1.060287244e-58          -1.80508702         -1.662215041         -1.561975423        -0.7599883914        -0.9276453385        -0.1020694219        -0.7287264208       -0.04346470159        -0.2288186169      -0.005206343162        0.09056778434      -0.003555624854 
                   1                    4          -1.19126539         0.5566640818         0.1475495477        0.08570998142       0.001164146145      2.930306744e-05      2.339841485e-06      2.042488982e-29      8.787492676e-59          1.492539947          1.342324539          1.288529889         0.6293802671         0.6977635539        0.08738375075         0.5089311156        0.05401479165         0.3204181255       0.008113109201         0.4376787745         0.0047301584 
                   1                    1          14.94349856        0.01650629604       0.004375163756       0.002541486639      3.451945531e-05      8.688994346e-07      6.938136927e-08      6.056422334e-31      2.605681959e-60        0.03294660524        0.03443804755        0.02669509443        0.02172226904       0.006414011172       0.003955553776      -0.006489244821        0.00312940895       -0.02825328951      0.0006065576186       -0.01603604345       0.000456777943 
                   0                   46           9.16717357        -0.2044051269       -0.02329710144     -0.0009279922622     -4.381016756e-10     -6.907861215e-15     -4.198096202e-18     -3.880200838e-83    -7.275962115e-165       -0.06130029277       -0.05009366726       -0.05968518636       -0.01153012197       -0.04820979118     -5.109527452e-06       -0.04106838067     -1.160425036e-08       -0.02582030429     -9.561552226e-29       -0.02138479175      -6.44542844e-54 
                   1                    2          -2.45994391         0.1494497184        0.01703355147      0.0006784965933      3.203157036e-10      5.050645886e-15      3.069415649e-18      2.836988149e-83     5.319780896e-165        0.04479191159        0.03673822288        0.04359950493       0.008440639279        0.03517914375      3.913537451e-06        0.02995691867      6.185111722e-09        0.01931823864     -3.042852838e-29        0.01689213908     -4.112069122e-54 
                   1                    1          14.92386895       0.003690206163      0.0004205917367      1.675340936e-05      7.909221887e-12      1.247103359e-16      7.578988215e-20      7.005079209e-85     1.313558062e-166       0.001071601811      0.0009157284147       0.001040374892      0.0002294958459      0.0008164971436      9.530424413e-08      0.0006748927155      2.280820129e-10      0.0003743376198      2.384800282e-30      0.0002789821283      1.659470577e-55 
                   0                   47          10.55033353        -0.0328824958      -0.003367266921      -8.11661062e-05     -5.194785505e-12     -2.076289096e-17     -5.214756831e-21      -3.95401241e-93    -2.004793097e-183      -0.006577066202      -0.005476335855      -0.006425122413      -0.001254714957      -0.005279925562     -3.203878786e-07      -0.004482398263     -9.815312734e-10        -0.0022002864     -1.118114113e-26      -0.001324011694     -3.268282879e-46 
                   1                    3          -0.02956009       0.006201529756      0.0006350553843       1.53076587e-05      9.797193342e-13      3.915812441e-18      9.834858601e-22      7.457136395e-94     3.780973356e-184       0.001240881083       0.001034393317       0.001212103664      0.0002365813577      0.0009952474537      5.886345012e-08      0.0008447642247      1.631647318e-10      0.0004272351243      3.415227762e-28      0.0002696360169      3.764640999e-47 
                   1                    1          14.95682716      0.0002933589768      3.004084558e-05      7.241179628e-07      4.634492984e-14      1.852347367e-19      4.652310268e-23      3.527545604e-95     1.788562691e-185      5.781049607e-05      4.879675538e-05      5.644738672e-05      1.135127538e-05      4.616281945e-05      2.831716475e-09       3.89857965e-05       9.28260468e-12      1.839307053e-05      1.060620063e-28      1.056395425e-05      2.916092014e-48 
                   0                    8          -0.05320489         0.9092325462         0.1968793749        0.07160755061      0.0001541166679      1.002058221e-06      3.252824998e-08      4.514180833e-39      3.503902196e-78          1.606764706          1.418982403          1.452941997         0.5580093772          0.940355592        0.04060008338         0.7457895027       0.009120239128         0.3384530215      4.543359043e-05         0.2482307916       1.30931826e-06 
                   1                    1            1.1668102                   -0                   -0                   -0                   -0                   -0                   -0                   -0                   -0     -0.0003131504642       -0.03659512609      -1.26858102e-05       -0.01921870594       0.007115081796      0.0006434250899         0.0156736411      0.0006818433049        0.06958499552     -1.523850853e-06         0.1480524459     -1.854086365e-08 
                   1                    1          15.01342061                   -0                   -0                   -0                   -0                   -0                   -0                   -0                   -0       -0.01371173834        0.01268338984       -0.01447885805        0.01366788881       -0.02219898578      0.0003454646312       -0.03001700327       0.000251588171       -0.06902645887     -2.449990627e-07        -0.1051648271     -3.575173833e-09 
                   0                   11          -1.46798227         0.5315604864        0.07106235018       0.005501915967      3.176957143e-08      2.862308255e-12      5.449153079e-15      2.480784177e-70     5.216317833e-140         0.2689312768         0.2230021689         0.2603509197        0.05732430388         0.2034761813      0.0001125225606         0.1686653938      3.921508543e-06        0.08388406572      3.886983434e-12        0.06580143064      3.596892006e-19 