ITEM: TIMESTEP
0
ITEM: NUMBER OF ATOMS
4
ITEM: BOX BOUNDS pp pp pp
0.0000000000000000e+00 4.2600002000000003e+00
0.0000000000000000e+00 2.4767999999999999e+00
0.0000000000000000e+00 3.0000000000000000e+01
ITEM: ATOMS id type c_1[1] c_1[2] c_1[3] c_1[4] c_1[5] c_1[6] c_1[7] c_1[8] c_1[9] c_1[10] c_1[11] c_1[12] c_1[13] c_1[14] c_1[15] c_1[16] c_1[17] c_1[18] c_1[19] c_1[20] c_1[21] c_1[22] 
1 1          13.94761186          12.58759914          8.787126199          6.127340155           1.25649555         0.4050830428      0.0002765549031      5.486991299e-08          48.54829876          43.35397676          45.91944964          35.33956406          35.94520635          14.82744192          21.34442829           4.31186846          15.23253565           2.56538359          5.146029433         0.9288985047          3.363793561         0.7482050002 
2 1          13.94375468          12.58369797           8.78577606          6.130957521          1.276174436         0.4211804762      0.0003097054113      5.889094816e-08          48.54774437          43.40307509            45.902358          35.40185541          35.89018325          14.87417237           21.2661833           4.34791395          15.15363113          2.601708295          5.072523992         0.9304984928          3.290687661         0.7220864299 
3 1          13.96233885          12.60288922          8.784422556          6.089081456          1.128255048         0.3180235255      9.209016529e-05      6.016995018e-09          48.60273788           43.3317298          46.04427062          35.25056309          36.28545931          14.46073531          21.51099779          4.149493031          15.25397073          2.533639031          4.942853485         0.9128746174          3.001134014         0.6804924839 
4 1          13.96311834          12.60400124          8.781954879          6.078836856          1.100867886         0.3006427906      5.893965536e-05      1.995959854e-09          48.58658796          43.26783629           46.0542139          35.16545498          36.35282246          14.37390869          21.61001631          4.091734294          15.35173012          2.483241812           5.00365288         0.8966185601          3.044156965         0.6759441414 
