ITEM: TIMESTEP
0
ITEM: NUMBER OF ATOMS
4
ITEM: BOX BOUNDS pp pp pp
0.0000000000000000e+00 4.2600002000000003e+00
0.0000000000000000e+00 2.4767999999999999e+00
0.0000000000000000e+00 3.0000000000000000e+01
ITEM: ATOMS id type c_1[1] c_1[2] c_1[3] c_1[4] c_1[5] c_1[6] c_1[7] c_1[8] c_1[9] c_1[10] c_1[11] c_1[12] c_1[13] c_1[14] c_1[15] c_1[16] c_1[17] c_1[18] c_1[19] c_1[20] 
1 1          13.96476828           12.6056247          6.087028169          1.119507223         0.5014271901         0.3146457277      8.209501999e-05      3.970337409e-09           49.3516782          45.80454987          41.41474379          23.21980379          21.66755042          4.085740579          15.46476914          2.429582278          5.114028471          0.866065986          3.182247822         0.7022581642 
2 1          13.95468975          12.59514658          6.118705648          1.217719676         0.5778523203         0.3743625906      0.0001299729975      6.821040225e-09          49.30585947          45.92504341          41.19425955           23.5472959            21.280538          4.297789419          15.06147656          2.618901715          4.828734619         0.9831415459          3.001557259         0.8427222953 
3 1          13.94237855          12.58225528           6.12121982          1.256501187         0.6194117631         0.4130077333      0.0003732397664      1.093201542e-07          49.29786537          45.85989508          41.12813474            23.581164          21.19689723          4.294971883          15.02403822          2.578249576          4.889391406         0.8754651506          3.068411345         0.6466277147 
4 1          13.95563384          12.59596947          6.100785762          1.173204864          0.549055067         0.3561170562      0.0003253617947      1.064694514e-07          49.34676743          45.84461564          41.31805777           23.3407156          21.53489492          4.144379749          15.36642044          2.445516581          5.120336655         0.8029624738          3.225201488         0.5590843351 
