54
Lattice="19.904050889 0.000008540 -0.000615361 -0.000005198 11.491115093 0.000045896 0.042448411 0.000094922 30.000000000" Properties=species:S:1:pos:R:3:tags:I:1:forces:R:3 energy=-310.04124616 stress= -18.07103 -17.61706 -2.16828 1.36225 0.44083 -0.38857 pbc="T T T"
Mo        2.64268        11.39434        3.96534        1        -0.097851        0.488352        -0.456532
Mo        5.83642        1.81864        3.75680        1        0.607043        0.544300        0.727814
Mo        2.58146        3.89955        3.86831        1        0.023597        0.607864        0.588857
Mo        5.84243        5.88561        3.70344        1        0.595955        -0.839785        0.540696
Mo        2.44563        7.53947        3.51516        1        0.164084        1.350022        0.726151
Mo        5.80309        9.42181        3.26014        1        1.277370        -0.841660        2.550522
Mo        9.25824        0.08692        3.83773        1        -0.946735        -0.480047        -0.644751
Mo        12.32269        1.80794        3.99081        1        1.168800        0.946118        0.806255
Mo        8.88227        3.94971        3.90095        1        1.279143        -0.597384        1.235393
Mo        12.50635        5.76531        4.42802        1        -0.725932        -0.736430        -2.256656
Mo        9.18771        7.95339        4.03513        1        -0.350845        -1.720291        -0.972146
Mo        12.43632        9.71421        4.30001        1        0.366232        0.302636        -0.783343
Mo        15.65872        0.04123        3.92352        1        -0.115561        -0.109337        0.986353
Mo        19.50494        1.85395        4.18269        1        -1.290717        -0.090765        -0.323280
Mo        15.71310        3.78471        4.16785        1        -0.132684        -0.910077        1.247890
Mo        18.97963        5.74796        3.95813        1        0.552086        0.104085        -0.158916
Mo        15.84143        7.48523        3.92159        1        -0.263299        0.495736        0.201756
Mo        19.15480        9.60379        3.86585        1        -0.604627        -0.150633        0.362745
Te        1.93022        1.98273        5.74969        2        -0.684295        -0.347823        0.025106
Te        4.79834        3.87555        5.55362        2        0.360290        0.236400        -0.546916
Te        1.64573        1.89695        2.43068        2        -0.504899        -0.070886        -1.730304
Te        4.79576        11.45958        2.04881        2        -1.046974        0.714564        -1.435813
Te        1.42378        5.92951        5.49107        2        -0.072095        -0.571149        -0.254081
Te        4.72171        7.70037        5.29894        2        -0.550138        0.137123        -0.724845
Te        1.00520        5.65524        2.03747        2        1.020824        -0.281276        0.126328
Te        4.79718        3.82612        2.23061        2        -0.417785        0.217306        -1.023341
Te        1.47051        9.43289        5.53669        2        0.133593        -0.063864        -0.654772
Te        4.90896        11.18808        5.31655        2        0.248962        0.117274        0.513494
Te        1.32810        9.93809        2.02907        2        0.101988        -1.278693        0.405166
Te        4.64966        7.43202        1.67160        2        -0.135982        0.231028        0.668393
Te        7.94405        1.77332        5.53492        2        -0.066859        0.586466        -0.066217
Te        11.32978        3.68312        5.87698        2        -0.724964        0.366119        -0.668549
Te        8.00801        2.29855        2.01215        2        -0.204052        -1.504991        0.280574
Te        11.54370        0.05462        2.19699        2        -0.656874        -0.725545        0.289024
Te        8.02255        5.81613        5.63003        2        -0.697358        0.784525        -0.060700
Te        11.22885        7.68801        5.85020        2        0.134517        0.674057        1.162840
Te        8.24655        5.99020        2.22854        2        -0.599756        0.338046        -0.172119
Te        11.16136        3.90007        2.48355        2        1.087326        0.179675        -0.035533
Te        7.72060        9.51723        5.56342        2        0.475308        0.937408        -1.045091
Te        11.16760        0.10096        5.84624        2        0.091091        -0.097798        -0.349937
Te        8.28447        9.52036        1.73523        2        -0.254986        0.484042        1.782001
Te        11.55701        7.80611        2.69155        2        -0.173987        -0.760805        -1.337999
Te        14.47880        1.87718        5.88460        2        0.355330        -0.244741        -1.163867
Te        18.21324        3.75140        5.71124        2        -0.440951        0.301685        0.809272
Te        14.81645        2.05971        2.19305        2        -1.042681        -0.607227        0.929842
Te        17.80869        0.00718        2.33006        2        1.127193        0.223329        -0.460986
Te        14.56378        5.71230        5.99974        2        1.555284        0.113397        -0.141405
Te        18.01114        7.68077        5.66548        2        0.049673        0.108342        -0.311135
Te        14.74948        5.43000        2.38667        2        -0.940195        1.509342        0.082712
Te        17.87619        3.51611        2.59576        2        1.052506        0.617946        -1.112093
Te        14.82867        9.45361        5.66602        2        -0.069524        0.354163        0.258343
Te        18.04791        0.10962        5.61959        2        -0.202636        -0.865662        0.363676
Te        14.44833        9.51951        2.31280        2        0.752175        0.015689        0.509240
Te        18.05609        7.70719        2.11064        2        -0.543194        -0.216876        0.702651
