54
Lattice="19.940895089 0.000456147 -0.025753600 -0.000245476 10.721779888 0.000007040 0.013560576 0.000001770 30.000000000" Properties=species:S:1:pos:R:3:tags:I:1:forces:R:3 energy=-315.52546203 stress= -13.04704 -7.25308 -2.65558 -0.45790 -0.87260 -0.00877 pbc="T T T"
Mo        2.45514        10.67919        4.28106        1        -0.677492        -0.010169        -0.013543
Mo        4.74462        1.71001        4.16564        1        -0.807219        -0.745914        0.150092
Mo        2.16663        3.51124        4.19986        1        1.495281        -0.019996        -0.650959
Mo        4.60804        5.64528        4.17419        1        0.750672        -1.323340        -0.244416
Mo        2.42036        7.30962        4.07418        1        -1.215219        -0.215329        0.651943
Mo        4.66343        9.06693        4.28395        1        0.995572        -0.840969        -0.246572
Mo        8.87873        0.02310        3.75975        1        0.502563        -0.592387        0.508965
Mo        11.20405        1.79645        3.76464        1        0.473782        -0.681181        -0.444879
Mo        8.63518        3.47990        3.52098        1        1.521279        0.490664        0.767191
Mo        11.23849        5.09635        3.60779        1        0.563754        0.212010        -0.808733
Mo        9.10448        7.13049        3.59224        1        -1.235383        -0.628009        -0.084133
Mo        11.40389        8.99868        3.83912        1        -1.295197        -0.087781        -1.322253
Mo        15.33833        0.08469        3.63284        1        0.954333        -0.158266        1.303504
Mo        17.67779        1.84721        4.06322        1        0.698593        -0.009229        0.065436
Mo        15.58584        3.55682        3.53784        1        -0.803611        -0.132483        1.428375
Mo        17.95770        5.66313        3.93792        1        0.314899        -1.090595        0.868873
Mo        15.52969        7.12503        3.46851        1        0.150862        -0.146783        0.848634
Mo        17.73895        8.91000        4.15419        1        1.381644        0.357575        0.368821
Te        0.31474        2.05091        5.43746        2        0.221527        -1.285104        0.939038
Te        4.34981        3.54323        6.09004        2        -0.907411        0.715144        -0.621992
Te        6.39814        10.62917        2.52544        2        -1.062137        0.206565        0.550493
Te        2.77041        1.57629        2.11448        2        0.464099        1.209941        1.383085
Te        0.49253        5.48533        5.58489        2        0.286826        0.539320        -0.464720
Te        4.17707        7.14632        6.26042        2        -0.546485        0.773765        -0.239736
Te        5.96882        3.58416        2.60610        2        0.365435        0.061568        -0.512398
Te        2.77596        5.34336        2.17504        2        -0.061769        0.066969        0.530516
Te        0.87236        8.97093        5.91710        2        -0.110389        0.005109        -0.603646
Te        4.44910        0.07286        6.36748        2        -0.718767        -0.185577        -1.055114
Te        6.40813        7.09934        2.71394        2        -0.718485        0.723628        -0.552070
Te        2.89008        9.06256        2.12674        2        0.450522        -0.231936        0.581268
Te        7.40559        1.75367        5.43821        2        -0.311837        -0.087528        -0.572785
Te        10.47026        3.54838        5.55297        2        -0.294632        -0.107607        0.896933
Te        12.91881        0.01333        2.28024        2        -0.310087        0.009258        -0.291849
Te        9.40611        1.65130        1.71362        2        0.107019        0.176050        -0.325550
Te        7.38093        5.40983        5.16515        2        -0.146368        -0.305198        0.355832
Te        10.85454        6.90378        5.53981        2        0.058826        0.782346        0.708360
Te        12.94857        3.49574        2.07238        2        -0.216272        -0.124265        0.397478
Te        9.42951        5.21942        1.53242        2        0.040733        0.402478        0.716024
Te        7.30511        8.71635        5.51513        2        0.795876        0.774419        -0.725422
Te        10.76224        0.00867        5.76876        2        -0.199796        -0.015798        0.049384
Te        12.98716        7.07686        2.24363        2        -0.407932        0.226907        -0.063230
Te        9.35682        8.92594        1.69716        2        0.971922        0.379517        0.523752
Te        13.78886        1.81140        5.23537        2        -0.127233        0.311279        -0.822258
Te        16.90458        3.72107        6.02321        2        0.411034        -0.177942        -1.788305
Te        19.66899        0.03837        3.01336        2        -0.180761        -0.229634        -0.134685
Te        16.18411        1.66314        1.71789        2        0.632955        0.755808        -0.287488
Te        13.79803        5.25768        5.01431        2        0.212602        -0.057518        -0.540548
Te        16.89971        7.08094        5.85742        2        -0.430300        0.431176        0.385821
Te        19.61636        3.59451        2.93720        2        -0.570976        0.587194        -1.104844
Te        16.57580        5.19259        1.70234        2        -0.423345        0.928011        -0.460682
Te        13.89496        8.91726        5.04764        2        -0.145232        -0.469476        0.196705
Te        16.92087        10.69959        5.87640        2        -0.328734        0.613414        0.659051
Te        19.52927        7.49843        2.55556        2        0.690430        -0.837622        0.225703
Te        16.63947        9.14384        1.86604        2        -1.291504        -0.958410        -1.080947
