54
Lattice="20.707852593 0.000456147 -0.025753600 -0.000245476 10.309403738 0.000007040 0.013560576 0.000001770 30.000000000" Properties=species:S:1:pos:R:3:tags:I:1:forces:R:3 energy=-316.53040678 stress= -19.70061 -5.30225 -0.37345 -2.33654 0.29612 0.94538 pbc="T T T"
Mo        2.39500        10.16515        3.97176        1        -0.548649        0.661323        -0.817031
Mo        4.84830        1.61728        4.19206        1        0.014706        0.126293        -1.672118
Mo        2.33917        3.40500        3.85788        1        -0.665344        -0.734588        0.428519
Mo        4.76391        5.04773        4.16198        1        0.392423        -0.200395        -0.687900
Mo        2.28321        6.93531        3.87033        1        0.965268        -0.625558        0.405502
Mo        4.81034        8.62443        4.12140        1        -0.171629        -0.345401        -0.974940
Mo        9.14401        10.22624        3.85652        1        0.762679        0.495938        0.844017
Mo        11.69197        1.79266        4.00224        1        0.641142        0.152483        -0.479739
Mo        9.34906        3.49482        3.93273        1        -1.365757        -0.662700        1.415609
Mo        11.87663        5.32747        4.04047        1        -0.290586        0.107614        -0.455038
Mo        9.13609        6.86335        3.99173        1        0.138689        0.065880        0.684679
Mo        11.77020        8.62154        4.03786        1        0.193857        0.661998        -1.264024
Mo        16.06536        10.18304        3.63021        1        0.229255        0.748152        1.619471
Mo        18.66612        1.74013        3.82958        1        -1.004400        0.119244        0.904422
Mo        16.10089        3.50352        3.74316        1        -1.058765        -0.425641        0.282545
Mo        18.63320        5.19284        3.71923        1        0.094676        -0.299548        0.713236
Mo        16.18519        6.86243        3.60379        1        -0.028422        0.047755        0.166842
Mo        18.65605        8.57732        3.74418        1        0.257664        0.620718        1.373674
Te        0.57547        1.58859        5.39079        2        0.041338        0.661275        -0.328436
Te        3.94818        3.27584        6.05390        2        -0.032460        0.749600        0.115147
Te        6.66138        10.12121        2.48921        2        -0.583075        0.474086        0.581146
Te        3.04651        1.54950        1.91664        2        0.389958        0.378797        1.329364
Te        0.47571        5.23574        5.17393        2        0.126081        -0.605372        0.164858
Te        4.24614        6.84959        6.03333        2        -0.864603        -0.082414        0.223172
Te        6.48577        3.36515        2.66750        2        0.272665        -0.108821        0.035548
Te        3.19558        4.96039        1.95804        2        -0.160964        1.140001        -0.010683
Te        0.56914        8.53921        5.43092        2        0.045674        0.062995        -0.178835
Te        4.00310        0.00143        6.12028        2        0.258876        -0.716684        0.067887
Te        6.48055        6.79626        2.58447        2        0.207035        -0.007965        0.212483
Te        3.11074        8.52531        1.88111        2        0.226419        0.143000        0.697665
Te        7.53348        1.64494        5.56161        2        0.002572        -0.166131        -0.518021
Te        11.19508        3.62937        5.92029        2        -0.284048        -0.537170        0.737723
Te        13.42751        0.01413        2.48494        2        -0.301569        -0.086000        -0.369827
Te        9.94733        1.81627        1.98074        2        -0.343101        -0.939727        -0.268958
Te        7.32336        5.01393        5.55867        2        0.808032        0.229084        -0.329975
Te        11.16010        7.08204        5.98592        2        -0.854426        -1.141551        0.682309
Te        13.32154        3.50451        2.42450        2        0.396086        0.194856        0.167623
Te        9.99894        5.13919        2.09708        2        0.077877        0.904719        -1.124107
Te        7.25117        8.48254        5.48568        2        1.211750        0.391919        -0.041870
Te        11.09316        0.10242        5.93630        2        -0.634132        -0.170306        0.121297
Te        13.53769        6.95734        2.44821        2        -0.364651        -0.091994        -0.259355
Te        9.99975        8.45664        1.99428        2        -0.237846        0.432424        -0.039059
Te        14.32537        1.79307        5.12830        2        0.394888        -0.064924        0.347649
Te        17.76052        3.46870        5.76892        2        1.022216        0.299280        -0.241532
Te        20.36270        0.12947        2.57372        2        0.861893        -0.700442        -0.962801
Te        16.71873        1.73046        1.82422        2        0.498752        -0.216542        -0.215273
Te        14.55978        5.47099        5.38762        2        -0.246167        -0.803355        -0.339256
Te        17.94453        6.92687        5.67915        2        -0.151073        -0.351580        0.152228
Te        20.37689        3.56018        2.27339        2        -0.007475        -0.323709        0.364568
Te        16.76861        4.92177        1.69857        2        0.376951        1.732199        -0.415676
Te        14.40544        8.66234        5.27542        2        0.305951        -0.115689        -0.002354
Te        17.77331        0.00175        5.84554        2        0.299778        -0.122846        -1.548273
Te        20.68937        7.06822        2.36284        2        -1.306795        -0.443599        -0.447575
Te        16.92745        8.62804        1.70175        2        -0.022243        -0.522200        -0.847352
