54
Lattice="19.940895089 0.000456147 -0.025753600 -0.000245476 10.309403738 0.000007040 0.013560576 0.000001770 30.000000000" Properties=species:S:1:pos:R:3:tags:I:1:forces:R:3 energy=-314.00751961 stress= -7.83039 -1.03150 -0.40933 -1.97956 -2.08599 0.99179 pbc="T T T"
Mo        2.32002        10.06193        3.77303        1        0.165297        0.745673        0.318697
Mo        4.56641        1.92670        3.92791        1        0.899538        -0.334207        -1.206095
Mo        2.29907        3.19251        3.79117        1        -0.573694        1.089635        0.124316
Mo        4.83290        5.36802        3.89195        1        -1.032505        -0.414270        -0.276186
Mo        2.29632        6.80245        3.97929        1        1.725739        -0.580939        -1.429907
Mo        4.75274        8.51011        4.09024        1        -1.236520        1.253005        -0.873964
Mo        8.85432        0.27300        3.85256        1        -0.210818        0.269070        0.107348
Mo        10.95484        1.93897        4.00756        1        2.940364        -0.079074        -0.965653
Mo        8.82181        3.67370        3.97638        1        -0.465807        -0.298028        -2.361055
Mo        11.21383        5.21992        4.19291        1        0.919136        0.883562        -0.267537
Mo        8.91330        6.94279        4.12300        1        -0.122751        0.702756        -3.211430
Mo        11.36618        8.44893        4.17272        1        -0.442146        -0.749701        0.578332
Mo        15.45878        0.02730        3.90447        1        -0.288367        0.009174        0.193215
Mo        17.76036        1.65474        3.76456        1        0.760221        -0.493470        1.219314
Mo        15.25519        3.45047        3.65202        1        -0.161065        -2.263352        1.618962
Mo        18.12561        5.00859        4.02369        1        -0.583379        -0.013647        0.162963
Mo        15.64871        6.60938        3.99537        1        -0.156037        0.994260        -0.745325
Mo        17.82550        8.58092        4.01662        1        1.563930        -0.633920        -1.040331
Te        0.49595        1.57226        5.14728        2        -0.115662        -0.500545        -0.028799
Te        4.03235        3.74890        5.82750        2        0.087664        -1.157754        0.486609
Te        6.50438        0.26378        2.13682        2        -0.484280        -0.205333        1.205086
Te        2.72763        1.57093        1.77687        2        0.761752        -0.986897        0.016535
Te        0.91132        4.92540        5.47164        2        -1.086888        -0.126233        0.130772
Te        4.20174        6.87481        6.04412        2        -0.585036        0.648210        0.024162
Te        6.24117        3.62922        2.28610        2        0.522118        -0.016015        0.313930
Te        2.98775        4.88315        1.80954        2        -0.046405        1.161039        0.863211
Te        0.70489        8.26073        5.48982        2        -0.063439        1.821826        0.046911
Te        4.23045        0.14594        5.86007        2        -1.101985        -0.286327        0.052664
Te        6.35075        7.38605        2.40293        2        1.108447        -1.423491        -0.359044
Te        2.87296        8.36207        1.73308        2        0.517831        0.123504        1.565354
Te        7.14295        2.03626        5.35299        2        -0.319249        -0.627538        0.157866
Te        10.52367        3.50165        6.00521        2        -0.120001        -0.054103        1.885464
Te        12.87238        10.20881        2.62415        2        0.042354        0.534361        -0.263555
Te        9.38493        2.01693        1.84691        2        -0.037983        -0.157680        0.007264
Te        7.25991        5.40232        5.45414        2        -1.029128        -0.632623        0.690850
Te        10.22663        6.77411        6.33362        2        1.839681        0.614413        -0.367254
Te        12.71036        3.36673        2.21724        2        -0.028135        0.416146        0.980872
Te        9.70780        5.29099        1.96964        2        -0.683895        0.634081        0.760658
Te        7.33754        8.89453        5.45365        2        -0.376640        -0.486926        0.231182
Te        10.75394        0.14012        5.87305        2        -0.621915        -0.815165        1.010971
Te        13.09012        6.73655        2.49115        2        -0.331440        -0.000753        0.798035
Te        9.69546        8.69393        2.18153        2        -0.240916        -0.259489        -1.189158
Te        13.78368        1.74704        5.35948        2        -0.523483        0.166937        -0.116569
Te        16.81112        3.45982        5.73133        2        1.315276        -1.053553        0.897063
Te        19.22280        10.03902        1.95264        2        0.092100        0.070589        1.330001
Te        15.94807        1.56243        1.74055        2        -0.001746        0.392625        0.389853
Te        13.93168        5.21418        5.55228        2        -0.556987        -0.546213        -0.233456
Te        17.68951        6.87411        6.01782        2        -0.880259        -1.282865        -0.230248
Te        19.58256        3.18647        2.24980        2        -0.211833        0.518755        0.372108
Te        16.36232        4.91530        2.02539        2        0.900361        2.375544        -2.739194
Te        13.80099        8.53116        5.38273        2        0.935532        -0.228639        0.449772
Te        17.49868        10.10340        6.02234        2        -1.028023        1.990266        -0.406640
Te        19.88671        6.66738        2.64336        2        -1.044435        0.127699        -0.673704
Te        16.09327        8.54876        2.00802        2        -0.288822        -0.858098        0.006808
