54
Lattice="19.174335959 0.000456436 -0.025753600 -0.000245188 11.952133320 0.000007040 0.013560858 0.000001769 30.000000000" Properties=species:S:1:pos:R:3:tags:I:1:forces:R:3 energy=-314.56088537 stress= -9.19474 -15.82864 -0.77731 -0.10281 -0.20078 -1.21865 pbc="T T T"
Mo        2.10459        11.73354        3.65722        1        0.307393        -0.497951        0.217495
Mo        4.67003        1.66851        3.76154        1        0.035274        0.147302        0.572559
Mo        2.37585        4.18365        3.40228        1        0.112950        0.403748        0.435214
Mo        4.45482        6.28704        3.78566        1        -0.013011        0.439668        1.434407
Mo        2.07786        8.10244        3.78719        1        -0.577144        0.263983        -1.413989
Mo        4.48655        9.92276        3.79493        1        -0.132922        0.802358        0.298688
Mo        8.18844        0.67790        3.94667        1        -1.692117        0.769761        0.264073
Mo        10.63847        2.31640        4.34722        1        0.230326        0.188066        -1.072055
Mo        8.49872        4.20782        4.00071        1        -0.565905        0.195873        -0.947834
Mo        10.86867        5.93939        4.13157        1        -0.424136        -0.405263        -0.024213
Mo        8.66108        7.79750        3.80030        1        -0.254132        -0.150670        -0.618913
Mo        11.13037        9.27628        4.08934        1        0.094362        0.695575        0.221593
Mo        15.03272        0.11792        3.98626        1        -0.260603        0.531389        0.016457
Mo        17.32138        2.15957        3.96652        1        -0.212444        0.508601        0.218337
Mo        14.95284        3.82296        3.84344        1        -0.190541        0.226053        -0.114164
Mo        17.30683        5.57312        3.88064        1        -0.972709        -0.876192        0.442523
Mo        15.19856        7.58946        3.82041        1        -0.930662        -0.574454        -0.546569
Mo        17.03053        9.80752        4.35720        1        -0.572370        0.450115        -0.484733
Te        0.95738        2.06074        4.82543        2        -0.541447        0.366672        -0.174456
Te        3.92242        4.10850        5.56796        2        -0.313919        0.430066        -0.563181
Te        5.97218        0.01986        2.27286        2        0.471950        -0.466495        -0.629656
Te        2.76930        1.87981        1.97433        2        -0.535481        0.068667        -0.647577
Te        0.72071        5.81434        5.10132        2        0.316866        0.073868        -0.265409
Te        3.85359        8.18198        5.68139        2        0.409434        -0.566470        1.078189
Te        5.91136        4.14583        2.55392        2        0.017980        -0.295143        -0.085538
Te        2.74280        6.33964        1.78872        2        -0.491907        -0.407529        -0.674557
Te        0.55522        10.01827        5.26476        2        0.120041        -0.307398        -0.044975
Te        3.82903        0.00673        5.75545        2        0.142532        -0.448710        -0.698493
Te        5.98987        8.05480        2.26378        2        0.456733        -0.106166        0.216061
Te        2.72833        9.92815        1.71796        2        -0.307266        -0.159124        0.550819
Te        6.69612        2.39871        5.45601        2        1.320102        -0.224265        0.379499
Te        10.13325        4.21008        6.14135        2        -0.089952        -0.177884        0.246529
Te        12.25021        11.91911        3.33892        2        0.522266        -0.243413        0.067560
Te        8.95595        2.36830        2.03269        2        0.582100        -0.059057        0.614461
Te        6.95276        6.32723        5.25318        2        -0.473497        -0.692984        0.396310
Te        10.18894        7.79096        6.03614        2        0.220889        -0.225111        0.161689
Te        12.19658        3.91975        2.67340        2        0.607246        -0.372126        -0.096517
Te        9.22975        5.92563        1.90699        2        -0.113092        0.079265        0.813008
Te        7.14318        10.10101        5.01519        2        -0.495913        -0.132093        -0.117348
Te        10.03521        11.89461        5.57513        2        0.784346        -0.118689        0.676092
Te        12.45531        7.64714        2.54354        2        0.590752        0.067054        -0.106833
Te        9.22728        10.02296        2.53870        2        0.090034        0.543418        -0.710863
Te        13.46772        2.06571        5.53996        2        -0.073868        -0.060253        -0.514468
Te        16.66285        3.89193        6.01426        2        0.173853        -0.098439        -1.034528
Te        18.45679        11.84962        2.83304        2        0.458253        -0.344994        -0.065351
Te        15.52143        1.87622        1.94306        2        -0.144200        0.171519        0.298006
Te        13.40230        5.81531        5.28789        2        0.823369        0.162287        0.167165
Te        16.91507        7.44623        5.80647        2        0.010198        0.254420        0.847710
Te        18.78010        3.96939        2.25001        2        0.444123        -0.172992        0.192027
Te        15.41345        5.79326        1.79720        2        0.330014        -0.671950        0.743045
Te        14.34076        9.76149        5.54831        2        0.165596        0.016675        -0.341348
Te        16.94528        0.21789        5.88525        2        -0.393290        0.006428        0.144557
Te        18.36812        7.84331        2.71210        2        0.720029        0.747690        -0.153548
Te        15.39629        9.84351        2.17651        2        0.196165        0.290772        0.417171
