54
Lattice="20.272644424 0.000008540 -0.000615361 -0.000005198 10.639921383 0.000045896 0.042448411 0.000094922 30.000000000" Properties=species:S:1:pos:R:3:tags:I:1:forces:R:3 energy=-317.63999997 stress= -19.75141 -4.95972 -0.63140 -0.63401 0.49439 -0.10213 pbc="T T T"
Mo        2.61861        10.54477        4.00182        1        0.062156        0.547211        -0.716752
Mo        6.03450        1.96058        3.91117        1        -0.140265        -0.794965        -0.762304
Mo        2.69209        3.42614        4.00100        1        -1.267052        0.385731        0.512130
Mo        5.79713        5.38051        3.78437        1        1.220095        -0.070471        0.954034
Mo        2.70573        7.08326        4.02989        1        -0.510983        0.335102        -0.502710
Mo        6.10629        9.02330        3.92991        1        -0.242366        -0.686127        -0.168706
Mo        9.36179        10.56662        3.84658        1        -0.678077        -0.145907        -0.238140
Mo        12.51745        1.91067        3.91018        1        1.002857        -0.378982        0.591879
Mo        9.34700        3.47785        3.89684        1        0.647770        -0.108921        -0.150906
Mo        12.68771        5.29543        3.88361        1        0.663254        0.607954        -0.354417
Mo        9.29285        7.13965        3.93847        1        1.044837        0.069306        -0.554271
Mo        12.84381        9.01283        3.99504        1        -1.063394        0.244440        -1.272638
Mo        15.99153        10.62153        3.81506        1        0.571359        0.239216        1.160495
Mo        19.39156        1.59758        3.94405        1        0.831619        -0.158120        0.436398
Mo        16.08788        3.59688        3.93259        1        0.322573        -0.111807        0.244516
Mo        19.51045        5.20319        4.09646        1        0.160726        -0.431946        0.445957
Mo        15.93884        7.23652        3.85884        1        1.031600        -0.247593        -0.655082
Mo        19.59924        8.67802        4.00824        1        -0.389623        0.156421        -0.483807
Te        1.38865        1.67536        5.78024        2        0.058142        -0.051454        -0.705486
Te        4.86966        3.61886        5.63313        2        -0.066291        0.338781        0.748302
Te        1.42051        1.65088        2.25527        2        -0.117088        0.076442        0.280222
Te        4.83906        0.14450        2.21806        2        0.066629        -0.167025        0.145859
Te        1.49414        5.29026        5.84929        2        0.235125        -0.262764        -0.803393
Te        4.88899        7.21452        5.65800        2        0.365449        -0.213402        0.081534
Te        1.52951        5.27855        2.31848        2        -0.322031        -0.221330        0.363730
Te        4.63697        3.55895        2.13320        2        0.700522        0.179947        -0.455900
Te        1.55189        8.84288        5.74493        2        -0.458840        -0.484932        0.268474
Te        4.86661        0.12869        5.63111        2        0.171055        0.120450        0.245855
Te        1.65773        8.75639        2.08923        2        -0.605500        0.081299        1.090492
Te        4.82902        7.30330        2.19696        2        -0.162308        -0.201017        -0.308580
Te        8.20711        1.71258        5.61374        2        0.123757        0.099751        0.105966
Te        11.55533        3.74806        5.72717        2        -0.522021        -0.811794        0.021487
Te        8.23308        1.71727        2.05652        2        -0.158331        0.187238        0.575783
Te        11.51321        0.07792        2.14611        2        0.322251        -0.284018        0.164324
Te        8.18736        5.26804        5.51077        2        -0.897606        0.202291        0.836191
Te        11.63910        7.18744        5.58351        2        -0.466327        -0.181649        0.405555
Te        8.21572        5.29738        2.24470        2        -0.660092        -0.051452        -0.711483
Te        11.49865        3.59693        2.14989        2        -0.246227        0.227907        -0.745067
Te        8.26352        8.88550        5.72301        2        -0.154199        -0.012907        -0.130501
Te        11.47593        0.13065        5.65605        2        0.124812        -0.307746        0.124639
Te        8.15193        8.69131        2.03014        2        0.356914        0.964702        0.644834
Te        11.67853        7.13766        2.20519        2        -0.511452        0.469148        0.104941
Te        14.80910        1.79650        5.66574        2        0.179696        0.185303        -0.690714
Te        18.34663        3.29242        5.77925        2        -0.425247        0.635150        -0.297463
Te        14.80501        1.85007        2.22191        2        0.030257        0.285729        -0.039498
Te        18.30657        10.43516        2.18113        2        0.139687        -0.006132        0.356592
Te        14.88103        5.46425        5.54501        2        -0.010762        -0.686238        0.717630
Te        18.10503        6.98454        5.72496        2        0.699397        0.037990        -0.431449
Te        15.01355        5.37420        2.11623        2        -0.484366        -0.175693        0.006501
Te        18.44274        3.50672        2.28217        2        -0.546354        -0.326780        -0.260245
Te        14.93913        8.93266        5.67588        2        0.063271        0.349302        0.516395
Te        18.23109        10.37843        5.67683        2        0.094093        0.558494        -0.459311
Te        14.81244        9.06025        2.05157        2        0.161130        -0.829503        -0.186153
Te        18.41451        6.86337        2.29333        2        -0.311782        0.800495        -0.067854
