54
Lattice="19.174335959 0.000456436 -0.025753600 -0.000245188 11.952133320 0.000007040 0.013560858 0.000001769 30.000000000" Properties=species:S:1:pos:R:3:tags:I:1:forces:R:3 energy=-314.05970686 stress= -8.67921 -15.22061 -0.93606 -0.46976 -0.13764 -1.48169 pbc="T T T"
Mo        2.11177        11.52010        3.70488        1        -0.178765        0.215784        -0.097272
Mo        4.92150        1.57046        3.92200        1        -0.907363        0.614778        -0.799062
Mo        2.31095        4.38028        3.59400        1        -0.622312        -0.212907        -0.078890
Mo        4.37671        6.26198        4.00980        1        0.055761        1.191780        -1.604935
Mo        2.03079        7.90416        3.56197        1        0.957962        0.327916        1.641381
Mo        4.41861        9.73893        3.85363        1        0.098613        0.662387        -0.566797
Mo        8.05327        0.76601        4.06125        1        0.388222        -1.483491        -0.961339
Mo        10.78596        2.34659        4.13023        1        -0.540601        1.233573        0.244926
Mo        8.49029        4.21737        3.86733        1        -0.063184        0.192924        1.220583
Mo        10.85491        5.82302        4.07713        1        0.130645        0.100593        0.635067
Mo        8.64382        7.91696        3.83013        1        0.020266        -0.421139        0.918807
Mo        11.09841        9.49439        4.03360        1        -0.691675        0.136732        0.271032
Mo        15.01721        0.10356        3.86897        1        -0.518142        0.959805        0.311026
Mo        17.26202        2.01939        3.85710        1        0.151658        0.556809        -0.282644
Mo        15.01860        3.80212        3.75757        1        -0.828417        0.453905        0.431135
Mo        17.28877        5.74203        3.84943        1        0.333293        -0.297292        0.431328
Mo        15.17297        7.51203        3.75748        1        -0.729235        0.006963        0.479353
Mo        17.00535        9.82022        4.26104        1        -0.314916        -0.197090        0.564521
Te        0.83377        2.04621        4.67175        2        -0.034096        -0.285010        -0.091845
Te        3.69628        4.55837        5.77342        2        -0.113598        -1.237707        1.064562
Te        6.01852        0.02758        2.27429        2        0.377904        -0.572183        -0.274764
Te        2.83776        1.95677        2.15050        2        0.114369        -0.255365        0.608984
Te        0.61082        6.06083        5.15350        2        0.085192        -0.550088        -0.142131
Te        3.69329        8.21022        5.82628        2        -0.413925        -0.678087        -0.069421
Te        5.81060        4.03177        2.75048        2        0.229659        0.322864        -0.023999
Te        2.82797        6.10020        1.62612        2        0.302714        0.128142        0.608405
Te        0.48331        9.69692        5.31606        2        0.587747        0.616511        -0.288013
Te        3.98982        11.74466        5.67109        2        -0.460746        -0.164280        0.639708
Te        6.08201        7.92369        2.57748        2        -0.069754        -0.080042        -0.648576
Te        2.71588        9.73845        1.70796        2        0.186357        0.611751        0.205689
Te        6.94413        2.33462        5.66750        2        -0.572657        0.937769        0.771062
Te        10.06882        4.12716        6.12408        2        0.299927        -0.210408        -1.137623
Te        12.30224        0.07900        3.25843        2        -0.112587        -0.623744        -0.214272
Te        9.01605        2.24306        2.11719        2        0.092111        0.453448        -0.960496
Te        6.90255        6.17406        5.43601        2        0.396174        0.071064        -0.348362
Te        10.35797        7.70907        6.00767        2        -0.111141        0.584784        -0.717688
Te        12.42326        4.00176        2.44992        2        -0.434558        -0.141237        0.458612
Te        9.10945        6.09488        2.00652        2        0.260245        -0.552659        -0.690010
Te        7.04112        10.02228        4.89618        2        0.279804        0.341849        0.375955
Te        10.15300        0.20780        5.59050        2        -0.047627        -0.809475        0.490378
Te        12.50700        7.83656        2.67399        2        0.607143        -0.852444        -0.367421
Te        9.17600        10.12414        2.28834        2        0.485785        -0.176590        0.764407
Te        13.28854        2.14869        5.40757        2        0.902569        0.095004        -0.342418
Te        16.78238        3.89615        5.77486        2        0.136503        -0.142519        0.214266
Te        18.54505        11.60688        2.77229        2        0.159093        0.598601        -0.122468
Te        15.32904        1.91642        1.84591        2        0.667875        -0.234787        0.256145
Te        13.43663        5.85387        5.53350        2        0.491352        -0.113905        -1.250310
Te        16.76446        7.62879        5.94222        2        0.154447        -0.346962        -0.439121
Te        18.85751        4.05377        2.26536        2        -0.015596        -0.119905        0.362416
Te        15.60475        5.60392        1.79139        2        -0.368818        0.414361        -0.120927
Te        14.22961        9.75847        5.36900        2        -0.206825        -0.069902        -0.049239
Te        16.72646        0.20361        5.90942        2        0.390569        -0.211556        -0.343944
Te        18.64976        8.03174        2.53442        2        -1.091485        -0.433443        -0.218394
Te        15.37385        9.93711        2.18381        2        0.096453        -0.372157        -0.729836
