54
Lattice="19.940895089 0.000456147 -0.025753600 -0.000245476 10.721779888 0.000007040 0.013560576 0.000001770 30.000000000" Properties=species:S:1:pos:R:3:tags:I:1:forces:R:3 energy=-313.00347425 stress= -6.62264 -5.20445 -0.52670 2.07751 3.62692 -1.99263 pbc="T T T"
Mo        2.38423        0.55878        3.83960        1        -1.394996        -1.230873        -0.985392
Mo        4.78266        1.92952        3.94649        1        1.133663        0.198815        0.908149
Mo        2.26817        3.63514        3.98954        1        -1.481765        1.098137        -1.644848
Mo        4.56911        5.11700        4.04679        1        2.007276        -0.097532        0.956895
Mo        2.35249        6.73107        3.91222        1        -0.985533        0.437507        0.557690
Mo        4.81401        8.17179        4.16694        1        -0.835083        -0.002794        0.539827
Mo        8.97501        10.40118        3.67326        1        -2.299930        0.496739        0.828558
Mo        11.07607        1.68618        3.93452        1        1.975311        0.319731        2.135812
Mo        9.09989        3.68505        3.88081        1        -1.566141        0.819535        -0.897268
Mo        11.34596        5.34319        4.00586        1        -0.819056        -0.413821        -0.158378
Mo        8.82435        6.99878        3.87674        1        1.966422        -0.547963        -1.038722
Mo        11.34859        8.69208        3.97760        1        -0.632883        -0.359263        0.014291
Mo        15.46424        0.25255        3.92160        1        0.091100        -0.822827        -1.350066
Mo        17.92764        2.01167        4.00991        1        1.001201        -0.383747        -1.522234
Mo        15.47458        3.72388        3.64196        1        0.526058        0.081300        0.285855
Mo        17.87234        5.42934        3.92685        1        0.979086        0.784608        -0.099716
Mo        15.36387        7.46035        3.95306        1        0.578464        -0.518637        -0.761159
Mo        18.05649        9.57080        3.76672        1        -0.831571        0.030798        1.036675
Te        0.63888        1.89557        5.19223        2        -1.025909        -0.147706        1.184895
Te        3.83667        3.30877        6.03630        2        0.892291        0.283184        0.412448
Te        6.06241        10.20382        2.65755        2        0.482003        1.023261        0.090116
Te        3.13350        2.19131        1.95314        2        -0.174286        -1.193166        -1.764009
Te        0.48451        5.38741        5.55208        2        0.272491        -0.051334        -0.734122
Te        3.66745        6.56426        6.27877        2        0.932393        0.965697        -1.229748
Te        6.38123        3.47741        2.38869        2        0.253976        0.259006        0.331802
Te        3.07835        5.24503        1.80020        2        -0.234667        0.580555        0.632403
Te        0.83829        9.08493        4.81367        2        0.143914        0.493956        1.095887
Te        4.19121        10.57964        5.60173        2        0.188112        -0.659949        0.763659
Te        6.39308        6.87291        2.56302        2        -0.355167        -0.343011        -0.709768
Te        2.99400        8.88187        2.27955        2        0.468168        0.290096        -0.083802
Te        7.22340        1.65872        5.54061        2        0.363808        0.072477        -1.117815
Te        10.48131        3.35780        6.14048        2        0.699054        0.354781        -1.231681
Te        12.97103        10.60669        2.66832        2        -0.456901        0.461147        -0.459247
Te        9.29205        1.79591        2.06637        2        -0.260498        -0.618503        -1.609952
Te        7.30664        5.12863        5.28550        2        -0.562427        -0.023692        0.775191
Te        10.46296        6.95679        6.03017        2        0.771644        0.458361        -0.627246
Te        12.79218        3.40268        2.52526        2        0.292341        0.727106        -0.295994
Te        9.77162        5.37482        1.77507        2        -0.353744        -0.412732        0.988250
Te        7.50549        8.71629        5.36085        2        -1.002096        0.646979        0.822527
Te        10.42168        10.54601        5.73987        2        1.104336        -0.061579        1.575190
Te        13.06762        7.24983        2.11203        2        -0.766406        -0.245453        1.607234
Te        9.50624        8.76504        1.87218        2        0.787718        -1.080774        -1.258740
Te        13.88884        1.85634        5.36601        2        -0.579726        0.227158        -0.061678
Te        17.19199        3.80601        5.75848        2        -0.906503        -0.112188        1.644872
Te        19.67420        0.40569        2.11205        2        -0.629863        0.151763        0.999524
Te        16.36925        1.87035        1.90188        2        -0.817295        0.120489        -0.519878
Te        13.72253        5.16314        5.29203        2        0.760940        0.974444        0.156221
Te        17.13007        7.48786        5.98230        2        0.404570        -0.188671        -1.585687
Te        19.61711        3.86780        2.39455        2        -0.218223        -0.117013        0.381010
Te        16.30278        5.84145        1.79852        2        -0.528498        -1.048497        0.944932
Te        13.67790        8.97356        5.56771        2        0.573958        -0.190173        -0.624604
Te        17.16077        0.36479        5.91217        2        0.562564        -0.849983        0.405354
Te        19.70424        7.50589        2.76781        2        -0.939199        -1.085480        -0.715113
Te        16.08435        9.13237        1.88805        2        0.430981        0.441364        1.023846
