54
Lattice="20.641237959 0.000008540 -0.000615361 -0.000005198 10.639921383 0.000045896 0.042448411 0.000094922 30.000000000" Properties=species:S:1:pos:R:3:tags:I:1:forces:R:3 energy=-311.18796082 stress= -19.51562 -4.43439 0.11596 -0.70159 1.63564 0.48559 pbc="T T T"
Mo        2.48202        0.39205        4.08690        1        -0.875366        -1.333586        0.997184
Mo        6.18195        1.70864        3.93437        1        -1.398806        1.214970        -1.287655
Mo        2.70004        3.54997        4.24728        1        -0.334484        0.369231        -1.035286
Mo        6.09061        5.38378        3.87066        1        0.140852        -0.870816        0.920453
Mo        2.67995        7.54831        4.22070        1        0.917058        -0.084758        -0.665421
Mo        6.25580        8.80621        3.85757        1        -0.804317        1.682160        -0.242194
Mo        9.50349        10.49557        3.85305        1        -0.201039        0.026777        -0.206565
Mo        13.25977        1.56546        3.76762        1        -0.292408        0.566539        -0.605824
Mo        9.20824        3.30469        4.04217        1        1.583528        -1.272369        -1.852328
Mo        12.98557        5.32874        4.05930        1        -0.329025        -0.606919        -1.322703
Mo        9.43274        6.72823        3.83068        1        1.207078        0.951036        0.767480
Mo        13.08219        8.46016        3.99838        1        -0.320553        1.565278        -0.466247
Mo        16.51956        10.50983        3.93585        1        -0.418916        1.429759        -0.416492
Mo        19.42213        1.99732        3.80353        1        1.797570        -0.154214        -0.363732
Mo        16.33864        3.61894        3.82680        1        0.407595        -1.158095        0.032081
Mo        19.94801        5.44951        3.92679        1        -0.857434        0.110251        -0.191087
Mo        16.45845        7.02405        3.91185        1        0.695817        0.222996        -0.066254
Mo        19.69255        8.89980        3.77849        1        1.083262        1.739801        0.855652
Te        0.63301        2.08922        5.90026        2        2.061797        -0.049806        -0.851028
Te        4.99343        3.56794        5.63098        2        0.453211        -0.189961        0.631900
Te        1.31136        2.06444        2.38969        2        -0.391309        0.312902        -0.411121
Te        4.73631        0.14037        2.35473        2        0.097454        -0.753689        -0.568802
Te        1.77393        5.53996        5.74272        2        -1.322019        0.204455        1.305583
Te        5.08788        7.22255        5.56904        2        -0.433172        -0.257749        1.650365
Te        1.78075        5.55315        2.61228        2        -0.557021        -0.057855        -1.023033
Te        4.84892        3.65352        2.17395        2        -0.206436        -0.659210        0.717232
Te        1.02164        9.23136        5.79546        2        1.195415        -0.264556        -0.750282
Te        4.80395        0.07576        5.64946        2        0.213535        -0.425674        -0.067331
Te        1.59493        9.15476        2.26237        2        -0.602998        -0.067688        0.413579
Te        5.04701        7.14177        2.20254        2        -0.968871        0.435318        -0.674063
Te        8.07999        1.44777        5.67448        2        1.660974        0.100311        0.821360
Te        11.95547        3.25650        5.49845        2        -0.594504        0.435624        0.339812
Te        8.30043        1.59884        1.96413        2        0.053319        -0.180848        1.389692
Te        11.80325        10.36658        2.17885        2        0.601944        -0.026933        0.332283
Te        8.42978        5.06994        5.73216        2        -1.064612        0.835160        0.678393
Te        11.54018        6.93071        5.77604        2        0.710668        -0.109893        -0.549207
Te        8.10989        5.01143        2.24414        2        1.080968        0.061922        -1.038611
Te        11.74980        3.33628        2.12634        2        0.232396        0.390451        1.251780
Te        8.33624        8.70180        5.60060        2        0.787629        -0.352478        -0.116541
Te        11.96009        10.59029        5.40741        2        -0.432979        -1.170914        1.113510
Te        8.47462        8.59542        2.15527        2        -0.321329        0.467417        -0.314333
Te        11.82536        6.98781        2.01901        2        -0.029049        -0.856212        1.283723
Te        15.53291        1.68852        5.71654        2        -1.022893        0.251389        -0.922341
Te        18.43827        3.75515        5.52549        2        0.203856        0.626393        0.623773
Te        15.38224        1.64754        1.96602        2        0.044018        0.200508        1.090580
Te        18.58442        0.07713        2.07838        2        -0.102772        -0.323255        -0.365732
Te        15.37272        5.35703        5.74812        2        -0.985750        -0.548880        -0.337730
Te        18.55816        7.33190        5.64611        2        0.990376        -1.177332        -0.068644
Te        15.14001        5.33478        2.25603        2        -0.529504        0.260581        -0.791906
Te        18.59177        3.71309        1.93801        2        -0.256083        0.623015        0.767456
Te        15.54521        8.72279        5.77459        2        -1.215884        0.399265        -0.210608
Te        18.64008        0.20536        5.55763        2        -0.190977        -1.255796        0.659506
Te        15.38864        8.81818        2.26168        2        -0.990841        -0.595825        -0.700782
Te        18.69247        7.13166        2.11312        2        -0.124875        -0.678508        -0.176543
