54
Lattice="18.798270284 0.000008540 -0.000615361 -0.000005198 10.852719811 0.000045896 0.042448411 0.000094922 30.000000000" Properties=species:S:1:pos:R:3:tags:I:1:forces:R:3 energy=-321.50229104 stress= -6.71458 -7.26055 -3.74017 0.99269 -0.86414 -0.45673 pbc="T T T"
Mo        2.41841        0.00082        3.88925        1        -1.067663        -0.409798        0.139186
Mo        5.56667        1.91612        3.85782        1        -0.880917        -0.612809        -0.131857
Mo        2.34983        3.48189        3.94705        1        0.376327        0.491223        0.055674
Mo        5.54999        5.33325        3.87879        1        -0.981142        0.891095        0.210839
Mo        2.35314        7.23420        3.79036        1        0.459103        -0.573936        0.422808
Mo        5.52536        9.02015        4.00956        1        0.461119        -0.071966        -0.851027
Mo        8.59400        0.03455        3.96839        1        -0.077585        0.197152        -0.380577
Mo        11.78393        1.94322        3.96061        1        -0.093882        0.197624        0.188461
Mo        8.79475        3.67763        3.90431        1        -0.506781        -0.570383        0.235802
Mo        11.76826        5.53927        3.95941        1        -0.162617        -1.018172        -0.165988
Mo        8.48899        7.42313        3.84254        1        0.332650        -0.373581        0.852273
Mo        11.86426        9.25335        3.98757        1        -0.666261        -1.154420        -0.990461
Mo        14.90160        10.75875        3.95553        1        0.018780        0.119424        0.350951
Mo        18.06107        1.72946        3.93098        1        0.621957        -0.262384        0.051662
Mo        14.89335        3.49575        4.00605        1        0.461132        0.224652        -0.017055
Mo        18.00071        5.28785        3.90670        1        -0.349507        0.238218        0.011292
Mo        14.93540        7.20317        3.97912        1        0.043128        0.258827        -0.504215
Mo        18.16564        9.07742        3.98868        1        -0.575418        -0.480285        -0.119994
Te        1.36316        1.64550        5.82528        2        -0.202545        0.528839        -0.864727
Te        4.51372        3.58285        5.73933        2        -0.240217        0.141679        -0.406944
Te        1.38822        1.79392        2.06089        2        -0.477084        -0.406261        0.523386
Te        4.45129        10.72001        2.14337        2        0.684843        0.813883        0.110124
Te        1.32842        5.39335        5.61027        2        0.039259        -0.092163        0.031196
Te        4.43630        7.12114        5.74230        2        0.086376        0.185462        -1.094744
Te        1.20993        5.26427        2.09131        2        0.506037        0.408271        0.376685
Te        4.34610        3.67748        2.07654        2        0.505671        -0.498739        0.251899
Te        1.51030        8.95205        5.74554        2        -0.458669        0.401967        -0.572805
Te        4.43754        0.11541        5.62841        2        0.762185        -0.367017        0.284853
Te        1.33560        9.09367        2.06137        2        -0.037503        -0.194214        0.319494
Te        4.48367        7.21536        2.00322        2        0.189782        -0.051720        1.218676
Te        7.63793        1.86082        5.66073        2        -0.184316        0.462452        0.194303
Te        10.73415        3.72624        5.85105        2        0.278907        0.155622        -0.797811
Te        7.57037        1.89271        2.07099        2        0.566383        -0.024052        0.465313
Te        10.63583        0.26965        2.17702        2        0.661858        -0.949011        0.101050
Te        7.65672        5.47688        5.61533        2        -0.210872        0.034041        0.234380
Te        10.57142        7.36347        5.58325        2        0.664535        0.416631        0.483728
Te        7.65087        5.42636        2.18521        2        -0.072318        0.256857        -0.739857
Te        10.82915        3.68300        2.12128        2        0.076706        0.563487        0.002809
Te        7.55442        9.11512        5.91034        2        -0.090361        -0.058465        -1.182898
Te        10.73328        0.11801        5.66478        2        -0.170440        0.096619        0.845481
Te        7.67304        9.23963        2.04648        2        -1.067576        -0.449997        0.395996
Te        10.65032        7.35732        2.18583        2        0.642168        0.428001        0.134416
Te        13.78504        1.75401        5.79412        2        0.481325        -0.193426        -0.197041
Te        17.03535        3.45994        5.74045        2        -0.175232        0.492023        0.004452
Te        13.91409        1.74169        2.20251        2        -0.447398        -0.029212        -0.106583
Te        16.97996        10.76961        2.16368        2        0.215401        0.058313        0.237463
Te        13.88145        5.39293        5.70950        2        -0.141823        0.017705        0.320283
Te        17.05556        7.14862        5.70670        2        0.222663        0.255794        -0.089996
Te        13.94066        5.37329        2.24037        2        -0.379382        0.068317        -0.175445
Te        16.93498        3.42899        2.16052        2        0.052140        0.513120        -0.030060
Te        13.97289        8.93949        5.79181        2        -0.608442        0.522714        -0.018166
Te        16.97080        0.02242        5.76213        2        0.319790        -0.544205        -0.240256
Te        13.83523        8.99497        2.12944        2        0.288320        0.063066        0.312724
Te        17.00253        7.24536        2.18324        2        0.305489        -0.114938        0.342709
