54
Lattice="18.429676749 0.000008540 -0.000615361 -0.000005198 10.639921383 0.000045896 0.042448411 0.000094922 30.000000000" Properties=species:S:1:pos:R:3:tags:I:1:forces:R:3 energy=-318.20715785 stress= 3.50305 1.13857 0.03448 -0.92949 0.80805 -0.81427 pbc="T T T"
Mo        2.49851        0.12699        3.96608        1        -0.546608        -1.383222        0.756793
Mo        5.75872        2.02652        3.86801        1        -2.470506        -0.258253        0.421320
Mo        2.35852        3.61342        3.96901        1        -0.359081        -1.280763        -1.320397
Mo        5.40659        5.57410        3.93399        1        0.551918        -1.352908        1.326525
Mo        2.47735        7.17073        3.85108        1        -1.926091        -0.349615        0.005970
Mo        5.33203        9.17282        4.08584        1        -0.014276        -0.145698        -3.118893
Mo        8.58496        0.25978        3.95775        1        -0.939348        -1.161873        -1.270340
Mo        11.60946        1.80583        3.98094        1        -0.910481        -1.593898        -0.718114
Mo        8.53116        3.69733        3.75320        1        0.903497        0.104631        2.341418
Mo        11.56068        5.34685        3.88526        1        -0.610452        -0.663351        0.409300
Mo        8.45811        7.09732        3.91090        1        -0.621842        -0.073335        -0.914837
Mo        11.40368        8.76708        3.82814        1        1.233008        0.282482        -0.239489
Mo        14.67636        10.59699        4.02886        1        -0.855467        0.099349        -0.492582
Mo        17.61717        1.53784        4.26847        1        0.656309        0.373849        -1.243676
Mo        14.52781        3.35897        3.87203        1        -0.576167        -0.274022        1.274141
Mo        17.70764        5.07845        3.93250        1        -1.386365        0.631572        -0.444400
Mo        14.62920        6.83824        3.88045        1        0.024043        0.161861        -0.518060
Mo        17.62438        8.79332        3.95269        1        0.382713        -1.085630        -0.247489
Te        1.41630        1.74880        5.84184        2        -0.345497        0.377910        0.016669
Te        4.35321        3.76965        5.71842        2        1.008622        -0.159323        -0.040786
Te        1.29269        1.60746        2.23902        2        -0.709579        1.562720        0.196760
Te        4.37724        0.34554        2.01477        2        0.940132        -0.614665        1.095076
Te        1.30694        5.36318        5.56719        2        0.308806        0.447372        1.588460
Te        4.35548        7.36545        5.71495        2        0.174104        -0.506746        1.091368
Te        1.24662        5.31189        2.10752        2        0.802358        -0.073616        -0.028618
Te        4.43822        3.73566        2.15884        2        -0.238455        -0.256695        0.002497
Te        1.29826        8.73292        5.79387        2        0.285445        0.905357        -1.103909
Te        4.47272        0.42031        5.80611        2        0.646780        -0.479853        -0.232468
Te        1.43726        8.94265        2.01297        2        -0.531173        -0.144752        1.339920
Te        4.47292        7.12864        2.16628        2        0.004894        2.078032        -1.478315
Te        7.69647        2.07095        5.69658        2        -0.523011        -0.367698        0.794724
Te        10.53958        3.56131        5.73087        2        -0.103143        0.604257        -0.458930
Te        7.67444        1.95835        2.01524        2        -0.384524        -0.744031        -0.680708
Te        10.50264        10.60418        2.06738        2        0.334699        0.565547        0.271939
Te        7.34705        5.61078        5.83990        2        0.515599        -1.067181        -0.548609
Te        10.49511        7.14315        5.70131        2        -0.150850        -0.733910        0.426355
Te        7.36092        5.27055        2.07246        2        0.134138        1.719788        -0.506717
Te        10.67366        3.53533        2.03883        2        -0.601399        0.241294        0.365271
Te        7.47530        8.90086        5.59358        2        0.220916        1.308305        1.030439
Te        10.53160        10.46772        5.66765        2        0.480508        1.202085        0.859130
Te        7.38086        9.11610        2.09029        2        0.097692        -0.418933        1.244531
Te        10.38944        6.97629        2.14502        2        0.348167        0.393662        -1.515183
Te        13.48144        1.59997        5.86681        2        0.765664        0.411542        -0.351371
Te        16.37214        3.44012        5.74851        2        1.420053        -0.296614        0.769179
Te        13.42928        1.74783        2.03292        2        1.082067        -1.102022        0.397435
Te        16.61551        0.04443        2.27993        2        0.547462        -1.220425        -0.613210
Te        13.46104        5.20894        5.71170        2        0.828503        -0.154503        0.268885
Te        16.58799        6.81626        5.76098        2        0.488978        0.436436        -0.662332
Te        13.59006        5.06731        2.14167        2        0.025640        1.090408        -1.184610
Te        16.69481        3.16874        2.21759        2        -0.015912        0.738852        0.316036
Te        13.63853        8.67320        5.54253        2        -0.827685        0.121664        0.686409
Te        16.72544        10.25675        6.06061        2        -0.653767        0.960141        -0.996431
Te        13.52125        8.71821        2.06825        2        0.634541        0.297116        0.802891
Te        16.62562        6.77191        2.02994        2        0.440402        0.856068        0.816712
