54
Lattice="19.904050889 0.000008540 -0.000615361 -0.000005198 10.639921383 0.000045896 0.042448411 0.000094922 30.000000000" Properties=species:S:1:pos:R:3:tags:I:1:forces:R:3 energy=-318.40864583 stress= -15.98121 -3.76419 -1.05557 -1.45362 0.93191 0.55910 pbc="T T T"
Mo        2.58561        10.55219        3.76858        1        0.293092        0.601403        1.608785
Mo        5.85069        1.74346        3.95786        1        0.258731        0.756716        -0.663391
Mo        2.50642        3.51051        4.00426        1        -0.132749        0.551807        -1.016898
Mo        5.90409        5.29263        3.96719        1        -0.562302        0.673883        -0.468991
Mo        2.46765        7.00232        3.71934        1        0.598092        0.304943        0.776419
Mo        5.91423        8.82355        3.78744        1        0.025774        -0.342393        -0.011358
Mo        9.21786        10.63452        3.93065        1        0.297198        0.886053        -0.781827
Mo        12.59442        1.91326        4.04880        1        -1.197097        -0.215438        -0.538832
Mo        9.18110        3.69122        3.93399        1        0.062249        -1.370889        0.862285
Mo        12.27634        5.40577        3.93206        1        0.531116        -0.129836        -0.034250
Mo        9.24436        7.19381        3.93310        1        -0.268454        -0.072111        0.799196
Mo        12.49281        8.71866        3.97101        1        0.760247        1.218112        -0.141673
Mo        15.73339        0.00816        3.92247        1        0.656912        0.638753        -0.316322
Mo        19.22601        1.74420        4.00111        1        -1.193881        -0.762078        -0.782037
Mo        15.76956        3.52750        3.83442        1        -0.538755        0.325507        -0.493568
Mo        19.12723        5.18867        4.13560        1        -0.336791        0.510866        -1.513282
Mo        15.78051        7.15130        4.01639        1        0.725629        -0.453458        -0.645412
Mo        19.08128        8.84601        4.04361        1        0.802433        -0.664672        -0.396638
Te        1.47670        1.67930        5.67666        2        0.154945        -0.264049        0.284605
Te        4.63607        3.60181        5.69808        2        0.651130        -0.704070        0.224979
Te        1.40300        1.75785        2.21725        2        0.053229        0.062637        -0.558750
Te        4.70415        0.08696        2.11632        2        0.795189        -0.552460        -0.357907
Te        1.39872        5.39251        5.66135        2        0.454600        -0.406711        0.524733
Te        4.61631        7.05884        5.60963        2        0.401991        0.314352        -0.773083
Te        1.30033        5.18157        2.09009        2        -0.092567        -0.025467        0.675549
Te        4.67164        3.60479        2.22632        2        0.240815        -0.725128        0.096792
Te        1.51766        8.84160        5.59686        2        -0.324045        -0.264054        -0.172612
Te        4.85728        10.51372        5.59618        2        -0.694229        0.162357        0.126099
Te        1.47715        8.85671        2.03968        2        -1.034605        -0.296156        0.032687
Te        4.66988        6.92184        1.96097        2        0.565031        0.566537        1.146650
Te        8.00983        1.80116        5.71406        2        0.310955        0.242876        -0.670920
Te        11.31466        3.67408        5.82705        2        -0.081735        -0.346919        -0.650500
Te        8.23687        1.76316        2.10679        2        -0.807070        0.461799        0.763536
Te        11.61473        0.02610        2.18512        2        -0.672486        0.071470        0.878118
Te        8.02916        5.43280        5.77435        2        0.146083        -0.030781        -0.532872
Te        11.29256        7.16028        5.80335        2        0.067943        -0.314522        -0.084729
Te        8.08505        5.41605        2.23968        2        -0.339320        -0.006843        -0.436271
Te        11.25719        3.60963        2.15395        2        0.484425        -0.185922        0.470416
Te        8.10194        9.00772        5.68371        2        -0.659282        -0.877913        -0.141574
Te        11.29400        10.60592        5.66496        2        0.899939        0.331216        0.000975
Te        8.24677        8.87854        2.10006        2        -0.831997        0.293585        -0.033468
Te        11.31269        7.17960        2.12442        2        0.055525        -0.342961        -0.226730
Te        14.75767        1.88812        5.70754        2        -0.336689        -0.604488        0.293050
Te        17.75385        3.43505        5.58995        2        1.111762        -0.010596        1.583318
Te        14.54292        1.88259        2.12946        2        0.514325        -0.713974        -0.045914
Te        18.03080        10.44641        2.14384        2        -0.210170        0.944683        0.813892
Te        14.56535        5.34266        5.50033        2        -0.342154        -0.334484        1.189475
Te        17.99833        7.00606        5.85437        2        -0.147569        0.380845        -0.197947
Te        14.59265        5.42736        2.20487        2        -0.267553        -0.150023        -0.025875
Te        18.01967        3.48478        2.25258        2        0.180429        -0.050397        -0.384052
Te        14.72538        8.87129        5.69926        2        -0.601796        0.435092        0.716090
Te        18.00972        0.06706        5.74679        2        -0.281205        -0.566259        -0.223534
Te        14.73975        8.80603        2.17600        2        -0.476584        0.377030        -0.030338
Te        17.96208        6.90854        2.40420        2        0.376978        0.641276        -0.476745
