54
Lattice="18.429676749 0.000008540 -0.000615361 -0.000005198 11.703913521 0.000045896 0.042448411 0.000094922 30.000000000" Properties=species:S:1:pos:R:3:tags:I:1:forces:R:3 energy=-313.23843225 stress= -4.21297 -16.11190 0.47673 0.94444 -0.36633 -0.34726 pbc="T T T"
Mo        2.42121        11.56808        3.90855        1        -2.021655        0.211080        0.939339
Mo        5.40969        1.66492        4.04245        1        -0.000243        0.200205        1.103409
Mo        2.26008        3.66504        4.07957        1        0.256264        0.070161        0.119054
Mo        5.31313        5.62888        4.03371        1        0.462071        0.316016        1.034672
Mo        2.46952        7.68127        3.92246        1        -1.469649        -1.885222        -1.113260
Mo        5.31040        9.64141        3.83368        1        -3.651002        -0.246314        2.464549
Mo        8.34260        0.06238        4.04229        1        0.720552        -0.425369        -1.314509
Mo        11.50425        2.16900        3.80531        1        0.302955        0.124958        -0.569578
Mo        8.34954        3.78996        3.75067        1        1.542648        0.013687        -0.259271
Mo        11.55876        5.98004        3.83017        1        -0.124247        -0.224828        -0.033447
Mo        8.31803        8.05267        4.16474        1        0.776591        -0.354001        -0.538927
Mo        11.48115        9.98877        3.82880        1        1.960648        -1.629036        0.681382
Mo        14.42615        0.20015        3.91902        1        0.688162        -0.414595        -0.184420
Mo        17.88501        1.91474        3.94592        1        -0.141239        1.766458        -0.301339
Mo        14.90558        4.00774        3.98164        1        -1.353055        -0.248453        0.753747
Mo        17.83455        5.98360        4.10647        1        -1.585684        -1.249204        -1.469564
Mo        14.55079        7.87669        3.68314        1        0.185258        1.368516        0.568655
Mo        17.56517        9.71876        3.84078        1        0.251487        -0.537384        -0.324590
Te        1.31737        1.68994        5.90674        2        0.766376        0.132034        -0.994755
Te        4.38709        3.69814        5.88591        2        0.001477        -0.336178        -0.704061
Te        1.35807        1.87792        2.15312        2        0.774231        -0.333032        0.025058
Te        4.30446        0.00295        2.14114        2        0.778146        -0.717357        -0.298751
Te        1.46962        5.81057        5.71959        2        0.186122        -0.036329        0.344835
Te        4.17379        7.64396        5.76854        2        2.533934        0.171703        0.581672
Te        1.24508        5.62853        2.23649        2        1.376544        0.501801        0.140475
Te        4.45298        3.57597        2.44772        2        -0.573317        0.717194        -0.669265
Te        1.24116        9.55612        5.54169        2        0.261755        0.420769        0.394016
Te        4.29856        11.36189        5.86350        2        0.005019        0.672184        -1.068501
Te        1.37694        9.39775        2.26786        2        -0.166233        1.606313        -0.931999
Te        4.54707        7.33722        2.10191        2        -0.777833        1.207953        0.303658
Te        7.58191        1.89967        5.72580        2        -0.753207        0.680568        0.332903
Te        10.46482        3.89056        5.55259        2        0.090806        0.885762        -0.381767
Te        7.35492        1.81885        2.10515        2        0.175487        -0.164746        0.381304
Te        10.49778        0.06817        2.30542        2        -0.882705        1.494024        -1.670226
Te        7.61607        5.55114        5.60967        2        -1.045070        1.425821        0.933608
Te        10.64523        8.00815        5.61731        2        -0.570763        -0.337286        0.256595
Te        7.50747        6.08994        2.45176        2        -0.289606        -0.685143        -1.024029
Te        10.49952        4.28029        1.82607        2        -0.154007        -0.909242        1.456533
Te        7.14706        10.01301        5.72848        2        1.152001        -1.007492        0.578302
Te        10.69700        0.15440        5.58057        2        -0.966045        0.414472        0.470602
Te        7.14528        9.85693        2.26098        2        3.407155        -0.110430        -1.844777
Te        10.46837        8.10827        2.26194        2        -0.816991        -0.970856        -0.245477
Te        13.42027        2.17059        5.73012        2        1.167589        -0.053401        -0.604524
Te        17.03494        3.85867        5.82747        2        -0.690481        0.408217        -0.804996
Te        13.73207        2.24969        2.19583        2        -0.296196        -0.375669        -0.063202
Te        16.69427        0.14125        2.28720        2        -0.492863        -0.371241        -0.983398
Te        13.77271        6.05444        5.52920        2        -0.800388        -0.731703        0.242995
Te        16.51220        7.78693        5.58975        2        0.413778        1.019204        0.154564
Te        13.80558        5.86199        2.14307        2        -0.729983        -0.553971        -0.207654
Te        16.87516        3.92578        2.22014        2        0.431571        0.263717        0.414464
Te        13.46222        9.80951        5.63581        2        0.985269        0.342289        -0.668861
Te        16.80917        0.13732        5.42622        2        -1.787085        -1.538593        2.118484
Te        13.57300        9.90368        1.86620        2        -0.235943        0.316995        1.596138
Te        16.57925        7.96014        1.90606        2        0.673811        -0.311883        0.911392
