54
Lattice="19.174335959 0.000456436 -0.025753600 -0.000245188 11.539990792 0.000007040 0.013560858 0.000001769 30.000000000" Properties=species:S:1:pos:R:3:tags:I:1:forces:R:3 energy=-311.91635542 stress= "-3.98487 -14.40488 -4.48153 -0.37550 1.54704 0.14627" free energy=-311.91635542 pbc="T T T"
Mo        2.08937        0.28207        4.43558        1        -0.379586        0.264105        -1.265414
Mo        4.43230        1.57361        4.47162        1        0.399161        0.954622        -0.524792
Mo        2.13359        3.96052        4.03837        1        0.764613        -0.259209        0.236743
Mo        4.28543        5.67861        4.25581        1        0.734480        1.026506        0.084835
Mo        2.07855        7.33573        4.21356        1        -0.120633        0.822483        -2.143308
Mo        4.30912        10.00730        4.47491        1        0.651438        -0.257239        -0.464181
Mo        8.48563        0.08050        3.54992        1        1.301884        -0.099254        0.560729
Mo        10.85743        1.93302        3.87794        1        -0.170357        0.349667        -1.357298
Mo        8.49646        3.75068        4.08265        1        0.973152        -1.207359        -1.867997
Mo        10.88807        5.65070        3.75743        1        -0.037412        0.220057        1.267561
Mo        8.54776        8.00017        3.92910        1        -0.598067        0.070198        -1.654219
Mo        11.09072        9.16483        3.36429        1        0.445302        -0.037757        2.472212
Mo        15.10175        11.26176        3.34854        1        0.075798        0.309847        1.434125
Mo        17.02212        2.24195        4.09523        1        0.340770        -0.564041        0.351800
Mo        14.82076        3.90793        3.62997        1        0.706186        1.423885        -0.024517
Mo        16.96666        5.64832        3.99056        1        2.112041        -0.031463        0.373723
Mo        15.04295        7.47398        3.56841        1        -0.754334        0.323581        -0.804832
Mo        17.44192        9.83020        3.74558        1        -0.323770        -0.399129        -0.022446
Te        0.45082        2.18610        5.60371        2        -0.308299        0.021072        0.348199
Te        3.84890        3.79188        6.15842        2        -0.120983        -0.027540        -0.068087
Te        5.93292        11.52756        2.66435        2        -1.001020        0.085029        0.315121
Te        2.78087        1.85436        2.36745        2        -0.005144        0.501303        -0.477667
Te        0.49025        5.82224        5.53423        2        -0.846745        -0.680833        0.134889
Te        3.82964        7.84976        6.08046        2        0.599482        -0.713373        0.673193
Te        5.81433        3.70379        2.96070        2        0.051364        -0.155277        0.206461
Te        2.75954        5.87556        1.96038        2        -0.108564        -0.426745        1.401720
Te        0.68900        9.80286        5.61278        2        -0.753210        -0.971734        -0.533622
Te        3.75043        0.12409        6.60706        2        -0.079476        -0.385804        -0.362013
Te        5.69052        7.82389        2.66104        2        0.299515        0.031513        1.148661
Te        2.58400        9.75157        2.51436        2        -0.228095        0.087616        0.299585
Te        7.01786        1.72780        5.53225        2        0.737600        -0.002037        -0.404427
Te        10.73917        3.73371        5.73883        2        -0.880982        0.600076        0.791351
Te        12.43425        11.38140        2.27042        2        -0.107404        -0.001834        -0.068135
Te        9.14350        2.27280        1.86856        2        -0.602729        -0.907921        0.252218
Te        7.25842        5.66938        5.24722        2        -1.086008        1.796986        0.192188
Te        10.56312        7.74457        5.67011        2        -0.124241        -0.436997        -0.628761
Te        12.37363        3.86011        2.28623        2        -0.287119        -0.109004        -0.354918
Te        8.92866        5.92966        2.04652        2        -0.645249        -0.522441        0.442459
Te        6.98873        9.65638        5.43609        2        0.488726        0.220616        -0.570233
Te        10.44549        11.35595        5.39049        2        -0.260358        -0.605795        -0.128076
Te        12.59566        7.35312        2.07514        2        -0.416259        0.264728        0.235835
Te        9.22500        9.54199        1.57004        2        -1.082606        0.325401        0.757688
Te        13.53862        1.82525        4.47825        2        -0.090872        -1.505657        0.720624
Te        16.15148        3.98739        6.00771        2        0.510089        0.032568        -0.294805
Te        18.71769        0.49567        2.67138        2        0.781132        -1.024757        0.220654
Te        15.83853        2.01582        1.69217        2        -0.486104        -0.447710        0.693597
Te        13.31649        5.69947        5.21898        2        0.411306        0.149614        -0.529201
Te        16.71544        7.87881        5.56066        2        0.224172        -0.097626        0.762728
Te        18.86805        3.81399        2.78158        2        -0.710493        0.903673        -0.833713
Te        15.59987        5.54166        1.69930        2        0.297285        0.452619        -0.547239
Te        13.50721        9.29656        5.11541        2        0.234589        0.671611        -1.046546
Te        16.53879        0.06591        5.77757        2        -0.290553        -0.181448        -1.051749
Te        18.84590        7.63786        2.24547        2        -0.214582        0.222289        1.513979
Te        15.78756        9.36400        1.60032        2        0.011607        -0.073406        0.121515
