54
Lattice="19.174335959 0.000456436 -0.025753600 -0.000245188 11.539990792 0.000007040 0.013560858 0.000001769 30.000000000" Properties=species:S:1:pos:R:3:tags:I:1:forces:R:3 energy=-310.63224857 stress= "-1.98755 -8.35138 2.47001 -1.07293 -0.78699 -0.45042" free energy=-310.63224857  pbc="T T T"
Mo        2.31339        0.25424        3.49385        1        1.284334        -0.716532        2.181739
Mo        4.52361        2.51143        3.87220        1        -0.865594        0.121344        -0.462113
Mo        2.20289        4.02937        3.58797        1        -0.293793        0.287337        -0.866593
Mo        4.57667        5.90007        3.58946        1        -0.301517        -1.086444        0.728765
Mo        2.18504        7.37832        3.39055        1        -0.368175        1.506374        0.674768
Mo        4.58607        10.23688        3.91248        1        -0.935060        0.066346        -1.410319
Mo        8.40757        11.41053        3.94345        1        0.111966        0.450313        -1.211836
Mo        10.89963        1.56364        4.34319        1        -0.383905        -0.210417        -1.102267
Mo        8.65050        4.28891        3.43023        1        0.485785        -1.238077        0.685682
Mo        10.76379        6.07247        4.23976        1        -1.387971        -0.712128        2.023549
Mo        8.57583        8.14415        4.15163        1        -0.220941        0.410239        -0.550806
Mo        10.86212        9.80719        4.34567        1        -0.798086        -2.467468        -1.999517
Mo        15.06007        10.87799        3.84311        1        -0.910240        0.607062        -0.381872
Mo        17.09549        1.15048        3.99875        1        0.715570        1.918146        0.719797
Mo        14.64848        3.76808        4.19537        1        0.734260        -0.477414        1.173028
Mo        17.08996        5.65773        4.20240        1        -0.003335        -0.587540        0.005290
Mo        14.94967        7.53325        4.10424        1        0.500132        -0.691337        -0.580120
Mo        17.36101        9.55829        3.99462        1        -0.401022        -0.775504        0.481554
Te        0.93136        1.99403        5.05087        2        -0.581027        -0.071148        0.409873
Te        3.74024        4.35197        5.75301        2        0.532397        -0.103080        -0.552474
Te        5.94976        0.65920        2.48401        2        0.919429        -1.223451        -0.249258
Te        2.71696        2.02204        1.73143        2        0.770001        1.416110        -1.187793
Te        0.57907        5.86695        5.03556        2        0.710009        -0.480439        0.059793
Te        3.87716        7.83005        5.30963        2        0.220467        0.188917        0.871737
Te        6.11606        4.08857        2.12516        2        0.246594        0.420971        0.220059
Te        2.92664        5.83577        1.42489        2        -0.198266        -1.021856        0.162215
Te        1.01864        9.67453        4.90024        2        -0.346118        -0.512964        -0.273289
Te        4.14000        0.56640        5.79492        2        -1.028471        0.160646        -0.376361
Te        6.12835        8.19658        2.64476        2        -0.095754        -0.402657        -0.277745
Te        3.02855        9.56012        1.72353        2        -0.442555        0.535875        0.526390
Te        7.17003        2.46033        5.00631        2        -0.265053        -0.882298        -0.214424
Te        9.73328        3.86279        5.82843        2        1.314638        -0.112403        -0.176482
Te        12.45939        11.27840        2.70636        2        -0.483839        -0.068615        -0.271395
Te        9.73141        1.56992        1.89161        2        -0.956969        0.702756        1.271182
Te        6.99142        5.94373        5.13175        2        0.127404        0.213325        -0.185707
Te        10.29385        7.79721        6.30553        2        -0.418317        0.077731        -0.726226
Te        12.20009        3.71682        3.15960        2        -0.950719        -0.087598        0.016881
Te        9.17459        6.52627        2.11731        2        -0.036784        -0.772042        -1.134283
Te        6.68727        9.87397        5.58353        2        1.430946        0.126061        0.403499
Te        9.94483        11.35522        6.09521        2        -0.317530        1.177813        2.096728
Te        12.36998        7.17836        2.73589        2        1.455371        2.254812        -1.711511
Te        9.02199        9.73992        1.84179        2        0.432364        0.588327        2.207782
Te        13.62285        1.26972        5.32370        2        -0.669429        1.028620        -0.133472
Te        16.79186        3.37041        5.73218        2        -0.217870        0.210828        0.560761
Te        18.87572        11.47074        2.66119        2        0.382860        -1.139062        -1.177514
Te        15.36597        1.52688        2.11282        2        -0.389766        0.165736        0.035769
Te        13.33667        5.87507        5.54013        2        -0.366023        -1.584218        0.708664
Te        16.89048        7.66617        6.00903        2        -0.097724        0.143195        0.084895
Te        18.46793        3.45977        2.68515        2        0.150256        0.648624        0.228754
Te        15.18035        5.45345        2.35433        2        0.598004        0.403341        -1.807114
Te        13.39959        9.19491        5.36204        2        -0.246192        1.694895        1.363533
Te        16.46583        11.20233        6.05772        2        0.774002        -0.604019        0.656604
Te        18.49091        7.44045        2.62212        2        0.630697        0.065911        -0.639705
Te        15.44370        9.00642        2.00716        2        0.421975        0.436763        -0.911881
