54
Lattice="20.641237959 0.000008540 -0.000615361 -0.000005198 11.916711949 0.000045896 0.042448411 0.000094922 30.000000000" Properties=species:S:1:pos:R:3:tags:I:1:forces:R:3 energy=-303.96814948 stress= -22.62378 -22.80890 1.45050 1.52256 1.31493 0.02767 pbc="T T T"
Mo        2.49926        0.21384        4.10429        1        0.066290        -1.196489        -0.603688
Mo        5.80737        1.85669        4.29173        1        0.396519        1.150601        -0.034976
Mo        2.76618        3.92371        3.71631        1        -2.268562        -0.588658        -0.199100
Mo        6.01378        5.96581        4.10286        1        -0.625947        0.448867        0.336285
Mo        2.60566        7.98409        4.06192        1        0.372248        -0.834655        -0.450536
Mo        5.66255        10.07035        4.40481        1        0.725011        -0.445298        0.143540
Mo        9.47368        11.87485        4.67444        1        -0.591513        0.235557        -0.499324
Mo        12.83836        2.12118        3.85317        1        1.127998        0.753888        0.325938
Mo        9.37100        3.93936        4.27098        1        0.863848        0.329514        -0.516245
Mo        12.77992        5.91233        3.90460        1        0.659638        0.334335        -0.832330
Mo        9.49826        7.76988        4.06927        1        -0.884690        0.380218        -0.112029
Mo        12.81294        9.80058        3.95132        1        0.784641        -0.136583        0.103894
Mo        16.46501        11.86433        3.81773        1        0.219001        0.686388        0.233894
Mo        20.17807        2.02819        3.75168        1        -0.581359        0.389553        -0.623699
Mo        16.67643        3.94133        3.46784        1        -0.326811        -0.029898        0.110285
Mo        20.03880        5.92461        3.27553        1        -0.363736        -0.314268        0.231611
Mo        16.46042        8.11648        3.46197        1        -0.250843        -0.974987        0.294004
Mo        19.89571        9.83854        3.75116        1        -0.374893        0.833290        -0.466647
Te        1.43611        2.12302        5.69944        2        0.170361        0.455514        -0.347176
Te        4.56611        4.20153        5.61786        2        0.995177        -0.963096        1.341831
Te        1.67792        1.83203        1.99917        2        0.158135        0.564194        0.745148
Te        4.82736        0.05531        2.58020        2        -0.096292        -0.283952        -0.295628
Te        1.42264        5.70408        5.28168        2        -0.335390        1.060897        0.117884
Te        4.72742        7.67631        5.98309        2        -0.205528        0.933822        -0.583562
Te        1.81186        5.98166        1.92590        2        0.130103        0.233661        0.539379
Te        5.04881        3.92514        2.44371        2        0.982552        -0.341376        -1.007409
Te        1.22057        9.85421        5.55115        2        0.608897        0.246406        1.043553
Te        4.39282        0.05407        6.04424        2        0.815108        0.201951        -0.101736
Te        1.62880        10.03766        2.39874        2        0.115027        -0.175612        -0.805892
Te        4.94770        8.18121        2.56743        2        -0.186820        -0.508688        -0.195623
Te        8.14128        1.99940        5.91637        2        0.084065        0.044543        0.797663
Te        11.83180        4.13529        5.73184        2        -0.178395        -0.773751        -0.493533
Te        8.40285        1.90351        2.76457        2        -0.630343        -0.707344        -0.179730
Te        11.50190        0.05451        2.79585        2        -0.234755        -0.520593        -1.851450
Te        8.22547        5.82906        5.85384        2        0.089944        0.577999        0.168816
Te        11.73322        7.76624        5.63287        2        0.339062        0.552608        -0.079273
Te        8.19197        5.84568        2.55530        2        0.759033        -0.048201        -0.829340
Te        11.71815        4.10064        2.12294        2        -0.505182        -0.704997        0.958576
Te        8.04890        9.86690        5.99774        2        0.472546        -0.132140        -0.300978
Te        12.20537        0.09918        5.74447        2        -0.725309        -0.363843        0.483077
Te        8.12497        10.05975        2.74546        2        0.328740        -0.164524        0.617524
Te        11.63973        7.73152        2.04983        2        -0.291821        0.594018        1.392552
Te        15.35524        2.19901        5.33974        2        0.268132        -0.383285        0.064611
Te        18.94966        4.11887        5.10170        2        -0.286199        -0.076201        0.431692
Te        15.37091        1.90614        2.14889        2        -0.687427        -0.105021        -0.539894
Te        19.03295        0.14178        2.12894        2        -0.719382        -0.888666        -0.231175
Te        15.41005        5.88612        5.00052        2        0.012022        0.511295        1.396955
Te        18.76766        7.67749        5.00233        2        -0.192087        0.376617        1.118592
Te        15.19363        5.97555        2.02013        2        -0.056398        0.073313        -0.555023
Te        18.91111        3.79378        1.76041        2        0.255156        0.207251        0.285351
Te        15.27750        9.86256        5.45628        2        0.205717        -0.048917        -0.352070
Te        18.90266        0.08259        5.34911        2        -0.416772        -0.390365        0.232003
Te        15.10108        10.07311        2.11879        2        -0.218448        -0.013479        -0.122834
Te        18.75124        8.06391        1.82664        2        0.235383        -0.028683        -0.294363
