54
Lattice="20.324373841 0.000456147 -0.025753600 -0.000245476 10.927967962 0.000007040 0.013560576 0.000001770 30.000000000" Properties=species:S:1:pos:R:3:tags:I:1:forces:R:3 energy=-315.88680832 stress= -12.74780 -7.98243 0.71081 -0.56741 -1.19174 -0.23848 pbc="T T T"
Mo        2.31520        10.86622        3.75930        1        0.011147        0.594091        -0.179953
Mo        4.84840        1.79051        4.14590        1        -0.926404        -0.379939        0.241104
Mo        2.31912        3.41583        3.90132        1        0.588028        -1.041266        -0.229908
Mo        4.67014        5.13143        4.10188        1        -0.059411        -0.281699        0.245712
Mo        2.23294        7.53555        3.94857        1        0.258793        0.628820        -0.768564
Mo        4.86027        9.35155        3.97092        1        -0.566741        0.242263        0.357141
Mo        9.17491        0.13617        3.90243        1        -0.454618        -0.940962        0.307727
Mo        11.55795        1.92772        4.11985        1        -0.046404        -0.291894        -1.307193
Mo        9.02455        3.39661        3.90184        1        0.278516        0.177572        1.306100
Mo        11.45813        5.71337        3.80737        1        0.066305        -0.179734        0.304346
Mo        9.07972        7.59287        3.71253        1        -0.951560        -1.155793        0.271276
Mo        11.48611        9.31713        3.99744        1        -0.120842        0.352517        0.043957
Mo        15.69437        0.09567        3.74504        1        0.335702        -0.283929        0.827158
Mo        18.20996        1.71892        3.89496        1        -0.006017        -1.346318        0.412996
Mo        15.73755        3.39137        3.96900        1        0.911132        -0.532360        -1.842982
Mo        18.19551        5.12234        3.90392        1        1.031435        0.417972        0.788044
Mo        15.79482        7.60079        3.88468        1        0.133837        0.093329        0.018379
Mo        18.15945        9.18232        3.80793        1        0.585315        0.673614        1.321815
Te        0.50913        1.54587        5.28389        2        0.272599        0.438468        0.042054
Te        3.93442        3.45785        6.15310        2        0.013306        0.128222        -0.909126
Te        6.68914        10.91333        2.52245        2        -1.067644        0.484869        0.207644
Te        3.21329        1.84676        1.93938        2        -0.164919        -0.519449        0.101842
Te        0.95525        5.39544        5.00687        2        -1.309035        0.196617        0.540161
Te        4.02249        7.33130        5.83067        2        0.680192        -0.077722        -0.034869
Te        6.34039        3.56198        2.59460        2        0.141859        -0.443004        -0.073860
Te        2.90402        5.54592        2.13325        2        -0.065386        -0.589990        0.147322
Te        0.46941        9.13149        5.22048        2        0.083450        0.394907        0.147749
Te        3.85220        10.84727        5.99000        2        0.454593        0.244111        -0.441118
Te        6.09251        7.19889        2.73097        2        0.542790        0.088283        0.274555
Te        3.11452        9.08877        1.90605        2        0.012906        0.033371        -0.106658
Te        7.34092        1.87733        5.58214        2        0.670833        -0.213485        -0.613122
Te        11.07946        3.85038        5.88045        2        -0.838451        0.500961        -0.491446
Te        13.18045        10.86038        2.40273        2        -0.187936        0.816272        0.231162
Te        9.83560        1.82935        2.03858        2        0.533464        -0.145772        -1.460613
Te        7.51800        5.42963        4.99834        2        -0.107291        0.531048        0.029288
Te        10.71319        7.40665        5.74308        2        0.439569        0.019565        0.802598
Te        13.18186        3.62457        2.71887        2        0.067247        0.279695        -0.284236
Te        9.51395        5.32508        1.92974        2        0.371585        0.854626        0.933377
Te        7.45253        9.18840        5.21880        2        0.004724        0.127875        0.298261
Te        10.97417        0.23526        5.96617        2        -0.431520        -1.178532        0.759558
Te        13.15268        7.58481        2.56901        2        0.318098        -0.806308        -0.119837
Te        9.72368        9.17863        1.83031        2        0.574831        1.071488        -0.240083
Te        14.26492        1.77682        5.53180        2        -0.457683        -0.050859        -0.023668
Te        17.62623        3.40838        5.84191        2        0.042438        0.505848        1.143656
Te        19.88658        10.84217        2.27200        2        -0.003393        0.157957        0.066293
Te        16.43230        1.83434        1.88136        2        -0.103724        0.278896        -0.534332
Te        14.39273        5.46913        4.99594        2        -0.708211        0.845481        0.386614
Te        17.89953        7.27809        5.82389        2        -1.008612        -0.547675        -1.119823
Te        19.85786        3.37310        2.61410        2        0.980843        0.945759        -0.512823
Te        16.51292        5.32437        1.97580        2        -0.851549        0.546818        0.454788
Te        14.16297        9.31789        5.41493        2        -0.156962        -0.591264        -0.144101
Te        17.52299        10.83690        5.79195        2        -0.049836        0.219307        0.133672
Te        19.84035        7.32165        2.74435        2        0.167796        -0.960875        -0.419931
Te        16.35351        9.23295        1.89286        2        0.057427        -0.354946        -1.277680
