54
Lattice="19.535457354 0.000008540 -0.000615361 -0.000005198 10.639921383 0.000045896 0.042448411 0.000094922 30.000000000" Properties=species:S:1:pos:R:3:tags:I:1:forces:R:3 energy=-319.10751615 stress= -13.28871 -2.55004 -1.46942 1.34001 -1.53206 0.42203 pbc="T T T"
Mo        2.28948        10.48508        3.92873        1        2.031229        -0.367524        -0.010695
Mo        5.65538        1.64935        3.90438        1        0.216470        1.433059        -0.780933
Mo        2.58763        3.34710        3.91835        1        0.476838        0.645087        0.515887
Mo        5.65571        5.18905        4.03239        1        0.898458        0.379348        -0.586766
Mo        2.51123        7.01493        4.02261        1        0.083516        0.662587        0.115861
Mo        5.71623        8.86193        3.92136        1        0.384213        -0.674782        -0.226691
Mo        8.92402        0.03260        3.86936        1        1.264654        1.049166        1.182489
Mo        12.24777        1.91051        3.87056        1        0.651168        -0.230949        -0.519244
Mo        9.00527        3.47465        4.06540        1        0.263271        1.356039        -1.051505
Mo        12.42907        5.48839        3.80006        1        -1.164517        -0.243488        0.083389
Mo        9.00238        7.09486        3.96920        1        -0.929197        0.338308        0.433839
Mo        12.15564        9.11691        4.02132        1        0.539061        -1.315182        -1.148837
Mo        15.32147        0.10922        3.91372        1        1.202996        -0.344770        0.496650
Mo        18.74226        1.69456        3.96941        1        -0.421560        0.244128        -0.014910
Mo        15.62703        3.65313        3.91373        1        -0.243114        0.773403        -1.236753
Mo        18.76462        5.10529        3.88371        1        0.986881        0.789457        0.228368
Mo        15.50588        7.34819        3.78032        1        0.216593        -1.294098        1.238093
Mo        18.79471        8.67338        3.94667        1        0.446474        0.244019        0.214509
Te        1.44280        1.59919        5.68853        2        -0.791167        0.573744        0.640827
Te        4.69132        3.40179        5.77041        2        -0.526486        -0.270896        -0.080842
Te        1.30314        1.71616        2.26477        2        -0.060832        -0.499817        -1.114837
Te        4.53875        10.61098        2.03877        2        -0.236267        -0.455685        0.972081
Te        1.45125        5.12404        5.68203        2        -0.243061        0.001173        -0.135019
Te        4.77889        7.08766        5.80667        2        -0.764352        -0.133905        -0.445949
Te        1.60522        5.22692        2.21183        2        -1.054809        -0.166794        -0.046060
Te        4.68791        3.59906        2.02890        2        -0.158224        -1.048787        0.912208
Te        1.33261        8.71864        5.85716        2        -0.002913        0.060960        -0.772008
Te        4.65774        10.53783        5.67463        2        -1.017403        0.134715        0.118268
Te        1.41586        8.77456        2.07165        2        -0.539177        -0.622528        0.721443
Te        4.58482        6.91999        2.24913        2        0.342623        0.922198        -0.060238
Te        7.78873        1.73507        5.66381        2        0.064193        -0.398603        0.524289
Te        11.36076        3.64034        5.64055        2        -0.633706        0.505162        0.101111
Te        7.82120        1.89328        2.15196        2        0.183430        -0.596414        0.268188
Te        11.07620        0.12137        2.07980        2        0.062762        0.328060        0.652451
Te        7.78302        5.25962        5.78811        2        0.734080        0.148434        -0.263955
Te        11.17601        7.07049        5.62840        2        0.145575        0.702943        0.367029
Te        7.93010        5.29628        2.25624        2        -0.454030        -0.137753        0.392155
Te        11.08611        3.85868        2.07904        2        0.339125        -1.284499        0.654456
Te        7.94280        8.94551        5.74827        2        -0.273272        -0.434028        -0.474396
Te        11.18775        0.15989        5.81364        2        -0.607803        0.450574        -0.681795
Te        7.86255        8.98792        2.22265        2        -0.297422        -1.313940        -0.827162
Te        11.04623        7.27354        2.19301        2        0.640091        0.215688        -0.012691
Te        14.53442        2.03026        5.69117        2        -1.078624        -0.731634        0.071683
Te        17.59690        3.57591        5.72915        2        0.711944        -0.907594        0.249293
Te        14.52423        1.84822        2.12693        2        -0.984038        0.863412        -0.301189
Te        17.43606        10.36242        2.28022        2        1.111980        1.010056        -0.302024
Te        14.44903        5.55598        5.60420        2        0.471212        -0.160627        -0.213069
Te        17.74080        6.88748        5.66727        2        -0.538534        0.690445        -0.180557
Te        14.52876        5.49698        2.01607        2        -0.002779        -0.314513        0.378490
Te        17.77671        3.41570        2.09150        2        -0.491759        -0.222656        -0.135487
Te        14.41675        9.01759        5.66062        2        -0.709825        -0.269271        0.616477
Te        17.58891        10.57313        5.64504        2        -0.117247        -0.394941        0.114651
Te        14.26642        9.01602        2.09536        2        -0.559262        0.322534        0.018001
Te        17.67413        6.96405        2.19111        2        0.493572        -0.020141        -0.659278
