54
Lattice="20.707852593 0.000456147 -0.025753600 -0.000245476 11.134156037 0.000007040 0.013560576 0.000001770 30.000000000" Properties=species:S:1:pos:R:3:tags:I:1:forces:R:3 energy=-314.46467425 stress= -13.87518 -11.31725 -0.39336 0.72084 -1.18434 -0.28795 pbc="T T T"
Mo        2.28256        10.68112        4.05330        1        -0.083289        0.759666        -1.215581
Mo        4.81075        1.82869        4.02752        1        -0.434463        0.159062        -0.180122
Mo        2.16308        3.85290        3.96124        1        0.014405        -0.119239        0.521570
Mo        4.66388        5.37569        4.05637        1        0.574800        0.093774        -0.894258
Mo        2.24775        7.63342        3.71608        1        0.174880        -0.573315        -0.132336
Mo        4.81438        9.63764        3.81194        1        0.266545        0.799152        0.752290
Mo        9.24245        10.82115        3.82295        1        0.126976        0.090455        0.146627
Mo        12.00869        1.41164        4.15883        1        -1.131718        -0.217224        -0.206180
Mo        9.13161        4.06037        3.88773        1        0.341259        0.337360        0.529279
Mo        11.95214        5.85735        3.96842        1        -0.816841        -0.098410        0.885320
Mo        9.03522        7.53872        3.83178        1        1.075546        -0.791084        0.265366
Mo        11.74101        9.18980        3.95146        1        0.374068        0.333112        0.548730
Mo        16.17050        11.10155        3.81242        1        0.471174        -0.536437        0.256014
Mo        18.64829        1.76786        3.84167        1        0.211044        -0.073011        0.672596
Mo        16.26690        3.41845        3.86686        1        0.002394        -0.688055        0.651343
Mo        18.61570        5.86972        4.01834        1        -0.043344        -0.081482        -0.785535
Mo        16.19168        7.59504        3.87761        1        0.270737        0.983920        -0.157566
Mo        18.64407        9.41148        3.95494        1        -0.074192        -0.855653        0.695524
Te        0.62755        1.62208        5.23429        2        0.372797        0.620023        -0.406615
Te        4.00648        3.69579        5.97783        2        -0.326466        -0.339056        0.043764
Te        6.44802        0.08039        2.33087        2        -0.060065        -0.191987        0.482735
Te        2.81653        1.75908        2.22392        2        0.115609        -0.105630        0.380119
Te        0.53603        5.75736        5.21145        2        0.127604        -0.087529        0.099740
Te        4.20522        7.65107        5.60380        2        -0.417643        -0.474729        0.078879
Te        6.25995        3.70032        2.50424        2        -0.146162        0.681622        0.166988
Te        2.94865        5.50871        2.01236        2        -0.015702        0.342505        -0.345119
Te        0.55015        9.10694        5.29117        2        -0.127298        -0.020297        0.519659
Te        4.10436        0.06313        5.98879        2        0.024738        -0.118250        -0.328396
Te        6.20820        7.56850        2.65435        2        0.389511        -0.871828        0.008669
Te        3.06151        9.35709        1.80243        2        -0.161166        -0.142627        0.202295
Te        7.62157        1.87694        4.69244        2        0.161936        -0.117918        0.302968
Te        11.13261        3.69236        5.68313        2        -0.030722        0.403271        -0.251300
Te        13.48782        0.03763        2.49818        2        0.155769        -0.777962        0.182519
Te        10.03573        1.88923        2.32109        2        0.241257        -0.139995        -0.016212
Te        7.36140        5.60956        5.17946        2        0.256546        0.088624        -0.307533
Te        10.89670        7.46864        5.89826        2        -0.115860        -0.347093        -0.641496
Te        13.48698        3.53861        3.11076        2        -0.366443        0.302900        -0.230319
Te        10.16232        5.66679        2.02968        2        -0.382242        0.254804        -0.421269
Te        7.58058        9.31665        5.26268        2        -0.622104        0.270985        0.057238
Te        10.92904        10.83757        5.98589        2        0.078840        0.411541        -0.411470
Te        13.41094        7.54648        2.53888        2        0.783921        -0.188211        -0.348801
Te        9.99247        9.18867        1.87985        2        0.064913        -0.104746        -0.174686
Te        14.72537        1.62777        5.49347        2        -0.190161        0.165214        -0.037640
Te        18.15878        3.73313        5.78217        2        -0.158519        -0.199575        -0.398056
Te        20.38378        11.00183        2.65643        2        0.339479        0.611336        -0.471833
Te        16.77210        1.71369        1.88466        2        0.286053        0.266002        -0.500710
Te        14.79792        5.50246        5.06691        2        -0.433201        0.275847        0.327284
Te        18.04506        7.60697        5.91303        2        -0.452403        0.128368        0.249859
Te        20.24326        3.89610        2.70037        2        -0.093058        -0.576210        0.066034
Te        16.63452        5.54519        2.21140        2        0.472079        -0.054226        -0.819079
Te        14.47196        9.12253        5.32380        2        -0.036301        0.663093        -0.039870
Te        18.03411        0.08234        5.84340        2        -0.213563        0.059717        0.078196
Te        20.10688        7.54834        2.15432        2        0.137456        -0.231415        1.085383
Te        17.01902        9.26396        1.91718        2        -0.985658        -0.000062        -0.527188
