54
Lattice="19.173937585 0.000456147 -0.025753600 -0.000245476 10.515591813 0.000007040 0.013560576 0.000001770 30.000000000" Properties=species:S:1:pos:R:3:tags:I:1:forces:R:3 energy=-317.95940781 stress= -2.13297 -2.60274 -1.19754 -1.20510 0.73095 0.27322 pbc="T T T"
Mo        2.18877        10.40641        3.83536        1        -0.523716        -0.722651        -0.961942
Mo        4.39150        1.75588        4.00862        1        0.281173        0.069293        0.696268
Mo        2.12405        3.42133        3.81701        1        0.355842        -0.626327        0.011402
Mo        4.62858        5.17770        4.13134        1        -1.659926        -0.370252        -0.447864
Mo        2.19225        6.87680        3.86712        1        -0.945385        0.791067        -1.233255
Mo        4.50988        8.76113        4.09286        1        -0.895917        -0.248647        0.222177
Mo        8.39895        10.43448        3.80580        1        0.242690        -0.035836        -0.528096
Mo        10.72133        1.75373        4.00734        1        0.688744        1.281717        -0.520513
Mo        8.55868        3.55312        3.81212        1        0.059042        -0.678450        0.735413
Mo        10.98127        5.28555        4.06988        1        -0.352161        0.853792        0.721461
Mo        8.50515        7.21043        3.88240        1        1.127973        -0.083020        0.763159
Mo        10.86989        8.81862        3.88682        1        -0.169915        -0.622951        0.371327
Mo        14.66280        0.11796        3.75920        1        2.583189        -0.107829        -0.519215
Mo        17.16500        1.60124        3.92402        1        -0.309199        -0.200733        1.097107
Mo        15.04770        3.44590        3.64522        1        -0.228280        0.917615        0.581126
Mo        17.32556        5.47770        3.93847        1        -1.096638        -0.866490        0.590454
Mo        14.95346        7.16133        3.92812        1        -0.148286        -0.626387        -0.774049
Mo        17.14089        8.69700        4.05037        1        1.628153        0.496703        0.315183
Te        0.38581        1.52154        5.31323        2        0.714970        0.822753        0.227896
Te        3.81480        3.49424        6.08418        2        -0.321938        -0.439212        -0.760950
Te        5.87820        0.01548        2.44174        2        0.783842        -0.277323        0.127674
Te        2.80516        1.47231        1.84075        2        -0.335569        1.204208        -0.125590
Te        0.61393        5.11438        5.36025        2        -0.244530        0.357023        0.309089
Te        3.63004        6.93866        5.94538        2        1.101960        0.117423        1.487679
Te        6.17002        3.50886        2.32849        2        -0.778129        -0.016803        0.843471
Te        2.88942        5.19031        1.95556        2        0.256318        -0.857307        -0.133234
Te        0.48729        8.90647        5.45555        2        0.278710        -1.132232        -0.223169
Te        3.73829        10.40450        6.01594        2        0.204413        0.922043        0.167058
Te        5.93114        6.97008        2.65446        2        1.719210        0.221469        -1.030248
Te        3.07350        8.43821        1.82161        2        -0.890914        1.141705        0.837394
Te        6.79032        1.86116        5.40612        2        0.869487        -0.639760        -0.367060
Te        10.21548        3.65108        6.00243        2        -0.203611        -0.824439        -0.159386
Te        12.38344        0.16929        2.33457        2        -0.572718        -0.094067        -0.126781
Te        9.06040        1.60800        1.90528        2        0.106330        0.967946        -0.477386
Te        7.08760        5.29504        5.47776        2        -0.128085        -0.035637        -0.031988
Te        10.57016        7.15207        6.06500        2        -0.811112        -0.184223        -1.258085
Te        12.51202        3.72624        2.46094        2        -0.187008        -0.922874        -0.383193
Te        9.25297        5.43960        2.12238        2        -0.164373        -0.961018        -2.221533
Te        6.96772        8.68687        5.52883        2        -0.294796        0.686944        -0.002305
Te        10.13609        0.00875        5.80541        2        -0.097820        -0.152733        1.457172
Te        12.43116        7.03844        2.32840        2        0.615058        0.505916        0.682667
Te        9.28947        8.68076        1.65611        2        -0.758487        0.666841        1.452360
Te        13.25181        1.99719        5.29867        2        0.341932        -0.686143        -0.058227
Te        16.57416        3.52565        5.92069        2        0.169408        -0.288743        -1.071889
Te        18.70368        10.46562        2.45043        2        0.773375        -0.601817        -0.525391
Te        15.82468        1.83485        1.65910        2        -0.979214        -0.540107        0.109534
Te        13.52646        5.21040        5.41430        2        -0.075341        0.557593        -0.178224
Te        16.92734        6.95621        6.12814        2        -0.960687        0.158422        -0.659206
Te        18.67541        3.50606        2.50192        2        0.765619        -0.296642        -0.131012
Te        15.57709        5.38475        1.77103        2        0.182408        0.203743        1.016628
Te        13.32988        8.96979        5.44390        2        -0.231275        -0.605931        -0.259962
Te        16.40313        10.40328        5.90734        2        -0.204305        0.770560        0.301715
Te        18.88389        6.87299        2.28833        2        0.127205        0.921180        0.521325
Te        15.75204        8.82926        1.88700        2        -1.429316        0.117397        -0.512268
