54
Lattice="19.173937585 0.000456147 -0.025753600 -0.000245476 11.134156037 0.000007040 0.013560576 0.000001770 30.000000000" Properties=species:S:1:pos:R:3:tags:I:1:forces:R:3 energy=-318.59146128 stress= -6.44740 -12.21248 -1.44469 -1.62951 -1.13431 0.52468 pbc="T T T"
Mo        2.07580        11.03364        3.68323        1        0.757226        0.106329        -0.238125
Mo        4.44431        1.90248        4.07775        1        -0.132723        -0.164634        -0.886489
Mo        2.17971        3.68775        3.79045        1        0.337647        0.021853        -0.251280
Mo        4.43222        5.56923        4.04086        1        0.855782        -0.529450        0.341881
Mo        2.16407        7.43754        3.73803        1        0.817940        -0.020474        -1.051785
Mo        4.52634        9.17219        3.94273        1        -0.152895        0.358108        0.380675
Mo        8.57853        0.06470        3.97273        1        -0.300323        -0.032585        -0.657371
Mo        10.87245        1.82856        4.13801        1        -0.226445        0.844615        -0.066746
Mo        8.57359        3.46065        4.00125        1        -0.954369        0.466529        -1.049096
Mo        10.77659        5.19373        4.18390        1        -0.850343        -0.055855        -0.418072
Mo        8.71084        7.53411        3.74610        1        -0.215464        -0.283191        0.195835
Mo        10.84205        9.47425        4.00729        1        0.522384        0.576226        0.616478
Mo        14.92753        0.41558        3.74539        1        0.810676        -1.147737        0.124414
Mo        17.32844        2.13467        3.93297        1        -0.995616        -0.898465        0.302259
Mo        15.01102        3.76008        3.72107        1        -0.539870        -0.401308        0.851831
Mo        17.25329        5.65598        3.88300        1        0.412925        -0.550929        1.550391
Mo        14.79306        7.26216        3.82657        1        0.926778        -0.660604        0.200967
Mo        17.08240        9.27497        4.01834        1        0.526059        0.143943        0.219317
Te        0.68072        1.87343        5.19992        2        -0.505918        -0.117731        0.415306
Te        3.89114        3.62250        6.01294        2        -0.326992        0.812917        -0.435721
Te        6.12171        11.12392        2.54611        2        -0.277106        0.046057        0.290842
Te        2.87437        1.79990        1.86250        2        -0.108234        0.231758        0.215437
Te        0.74748        5.66840        5.27612        2        -1.024898        -0.761683        0.025443
Te        3.75348        7.39516        5.87855        2        0.531142        0.223548        0.397847
Te        6.09239        3.54915        2.55238        2        0.002492        0.427580        0.188182
Te        2.83299        5.49760        1.91241        2        -0.042293        0.216206        -0.592375
Te        0.71465        9.11735        5.26509        2        -1.162056        1.009431        0.223456
Te        3.75283        11.12321        5.75265        2        0.095957        -0.861026        0.875023
Te        6.08751        7.37686        2.46284        2        0.066598        -0.003821        0.292145
Te        2.83254        9.24506        1.78742        2        0.101930        -0.096277        0.080239
Te        6.86835        1.84337        5.58016        2        0.452071        -0.181784        -0.286850
Te        10.09487        3.57118        6.15716        2        0.387830        -0.087287        0.519974
Te        12.35229        0.24945        2.46054        2        0.361232        -0.853907        0.025805
Te        9.25848        1.79156        1.96953        2        -0.435499        0.262097        0.307045
Te        7.00013        5.62642        5.40289        2        0.197560        -0.176962        -0.539599
Te        10.36529        7.45711        5.91657        2        -0.241060        -0.157144        -0.708507
Te        12.29695        3.69016        2.46107        2        0.371917        -0.101648        0.293756
Te        9.03531        5.43464        1.93881        2        0.420933        -0.036233        1.244961
Te        7.18608        9.25546        5.46342        2        -0.824259        -0.247359        -0.431539
Te        10.28079        0.11838        6.06242        2        0.094550        -0.970179        0.268150
Te        12.13806        7.13307        2.88634        2        0.115722        1.425515        -0.303320
Te        9.15544        9.49218        1.89070        2        0.012915        -0.498611        0.273755
Te        13.46852        1.91194        5.32729        2        -0.425879        0.510583        0.634024
Te        16.64581        3.80013        5.96525        2        0.194777        0.359659        -1.040837
Te        18.74158        0.03690        2.36398        2        -0.159759        -0.307402        0.551923
Te        15.62886        1.95558        1.74872        2        0.137046        0.374203        -0.042608
Te        13.35045        5.45626        5.31723        2        0.091915        -0.298580        0.169468
Te        16.53350        7.42258        5.89924        2        0.331517        -0.137175        -0.338743
Te        18.77038        3.67574        2.31539        2        0.897535        0.815019        -0.022826
Te        15.54423        5.51926        1.87968        2        -0.157838        0.867681        -1.303684
Te        13.52512        9.37186        5.14719        2        -0.416123        0.424473        -0.553079
Te        16.65425        0.18245        5.85635        2        0.069822        -0.294892        -0.620496
Te        18.85841        7.43132        2.38441        2        -0.657615        0.171403        0.151773
Te        15.25369        9.30570        2.08793        2        0.229523        0.236509        -0.348784
