54
Lattice="19.557416337 0.000456147 -0.025753600 -0.000245476 10.515591813 0.000007040 0.013560576 0.000001770 30.000000000" Properties=species:S:1:pos:R:3:tags:I:1:forces:R:3 energy=-313.80652708 stress= -4.40218 -0.39597 -1.03875 0.91388 0.19726 -0.66664 pbc="T T T"
Mo        2.31553        0.11163        4.02978        1        -1.066071        -0.668793        -0.925134
Mo        4.68414        1.55002        4.02613        1        0.007835        0.036388        0.073194
Mo        2.16645        3.77060        3.89232        1        0.495908        0.983378        0.117748
Mo        4.68571        5.71416        3.92131        1        -1.826259        -0.019372        1.060688
Mo        2.22749        7.26615        3.70883        1        -0.027685        -0.277835        0.553089
Mo        4.52637        8.76320        4.13526        1        0.640307        1.353380        1.559537
Mo        8.89693        0.03949        3.93392        1        -2.837620        -0.962587        0.432794
Mo        10.87494        1.43429        4.07337        1        2.637965        1.178442        0.377934
Mo        8.63275        3.37217        4.20660        1        -0.419143        0.400589        -0.048593
Mo        11.13240        5.08823        4.10669        1        -0.595943        0.194066        1.100775
Mo        8.70419        6.97721        4.07776        1        0.439431        2.241914        2.394176
Mo        11.02939        8.76922        4.05589        1        1.428734        -1.238889        2.194320
Mo        15.26551        0.07056        3.43331        1        -1.636837        -2.361034        2.942157
Mo        17.52321        1.49714        3.69900        1        1.269889        0.581787        -1.952300
Mo        15.10135        3.19961        3.38242        1        0.451860        0.786662        0.502690
Mo        17.93742        5.60736        3.66782        1        -1.540161        0.604630        0.159091
Mo        15.33196        6.69282        3.82969        1        0.496023        0.144896        -0.349226
Mo        17.56739        8.81953        3.83402        1        -0.020766        -1.116954        0.278835
Te        0.67478        1.91398        5.43864        2        -0.499512        -0.454649        -0.221262
Te        4.10105        3.56170        5.67354        2        -0.161215        1.112968        0.974515
Te        6.24101        10.42650        2.62495        2        0.399998        0.964138        -0.511107
Te        2.72767        1.99624        2.18637        2        0.573417        -1.040487        -2.175572
Te        0.45586        5.24830        5.41007        2        0.773729        0.685581        -0.258869
Te        3.61378        7.15458        6.15593        2        0.310571        -0.280707        -1.582361
Te        6.06917        3.69795        2.66563        2        0.311726        -0.696191        0.060454
Te        2.98614        5.56099        1.69318        2        -0.226925        -0.377494        1.338042
Te        0.52438        8.72306        5.55140        2        0.189445        0.407234        -1.123575
Te        3.86430        0.33559        6.20755        2        -0.005136        -1.568603        -0.278218
Te        6.35249        7.33218        2.55442        2        -0.613626        -0.872811        -0.507338
Te        3.16753        9.07279        1.83782        2        -0.795024        -0.216136        0.836044
Te        7.00975        1.73751        5.84101        2        0.687694        -0.015301        -1.254413
Te        10.60569        3.21428        6.05643        2        -0.259900        0.675714        0.073324
Te        12.53652        10.22835        2.32450        2        0.424861        0.841739        -0.214993
Te        9.22272        1.98524        2.05054        2        -0.747412        -0.560467        -0.409427
Te        6.72921        5.54196        5.72521        2        1.187100        -0.280241        -0.414669
Te        10.46641        7.09110        6.26358        2        0.090195        -1.232683        -1.671935
Te        12.29959        2.90590        2.12804        2        0.660764        1.291630        0.698014
Te        9.17674        5.30378        2.37028        2        0.174594        -2.051781        -2.919648
Te        7.12652        8.79477        5.50061        2        -0.543816        0.151567        0.679557
Te        10.43462        10.26828        6.18119        2        0.117009        0.532168        -0.172614
Te        12.79897        6.87242        2.74921        2        -0.848579        -0.640953        -0.748875
Te        9.41639        8.66215        2.07127        2        -0.556403        0.338883        -1.074581
Te        13.75482        1.65509        5.23689        2        -0.299606        -0.516907        -0.342835
Te        17.02356        3.48113        5.22426        2        -0.526579        0.628559        1.490799
Te        19.32589        0.00072        2.31718        2        0.209092        0.028537        0.257386
Te        15.81598        1.49481        1.49811        2        0.962684        1.346391        -2.091478
Te        13.65311        4.94950        5.17104        2        0.547899        -0.156130        0.191696
Te        17.10667        6.96523        6.06641        2        -0.481046        0.232571        -2.355981
Te        19.23201        3.54619        2.32548        2        0.005487        -0.073320        -0.062114
Te        15.99169        5.17528        1.62964        2        -0.074545        -0.141881        0.476021
Te        13.69552        8.57586        5.15829        2        0.385524        0.753719        0.142860
Te        16.83485        0.00674        5.65463        2        -0.347782        -0.090165        1.517066
Te        19.21802        7.37413        2.06484        2        0.462043        -0.609781        0.368756
Te        15.71594        8.53073        1.70957        2        0.617693        0.021840        0.804103
