54
Lattice="20.707852593 0.000456147 -0.025753600 -0.000245476 11.134156037 0.000007040 0.013560576 0.000001770 30.000000000" Properties=species:S:1:pos:R:3:tags:I:1:forces:R:3 energy=-314.83069987 stress= -15.79636 -12.78498 -2.18418 -0.09576 0.71101 -0.38309 pbc="T T T"
Mo        2.37926        10.91736        3.82992        1        -0.183001        -0.355552        -0.014077
Mo        4.72960        2.18277        3.99169        1        -0.056394        -0.026604        0.696815
Mo        2.20039        4.04216        3.85192        1        -0.127739        -0.809724        -0.598895
Mo        4.88306        5.64855        4.09909        1        -0.587782        -0.598260        0.219708
Mo        2.46118        7.40212        3.72617        1        -0.019542        -0.297433        0.871479
Mo        4.87138        9.00133        4.22528        1        -0.865627        0.268245        -0.053628
Mo        9.11141        10.84138        3.82963        1        -0.554648        0.376595        1.014138
Mo        11.68573        1.32428        3.78254        1        0.280558        0.236535        1.123781
Mo        9.16307        4.07606        3.75348        1        0.202566        0.413866        0.388994
Mo        11.76539        5.86132        3.88908        1        0.319651        -0.297158        0.155173
Mo        9.22772        7.51451        3.79129        1        -0.226838        0.551768        0.701241
Mo        11.68523        9.32717        3.96699        1        0.074960        -0.334984        0.150364
Mo        16.12686        11.06180        3.73939        1        0.398877        -0.236125        0.462167
Mo        18.66466        1.59283        3.76187        1        -0.047345        0.114633        0.266777
Mo        16.07499        3.28899        3.95649        1        -0.289834        -0.933859        0.176111
Mo        18.80102        6.04818        4.01862        1        -0.166597        -0.007135        -0.625412
Mo        16.12918        7.77972        4.03843        1        0.862654        -0.157956        -0.867049
Mo        18.69451        9.26537        3.95479        1        0.644743        0.360562        -0.156101
Te        0.55760        1.76741        4.93411        2        0.901602        0.414825        -0.156163
Te        3.77884        3.75242        5.98111        2        0.590400        0.233529        -0.548190
Te        6.27033        11.12266        2.84770        2        -0.000602        -0.134839        0.512830
Te        2.97696        1.86032        2.00968        2        -0.161593        0.436581        0.719225
Te        0.60575        5.79256        5.30741        2        0.592744        -0.610426        0.091195
Te        3.92733        7.21917        6.06173        2        0.109664        0.715998        -0.202334
Te        6.34917        3.80816        2.54274        2        0.170055        0.249823        0.128344
Te        3.30520        5.51868        1.90668        2        -0.443476        0.349872        0.105380
Te        0.69777        9.13406        5.19855        2        0.307437        0.623498        0.139126
Te        3.98662        0.06789        5.89532        2        0.633302        -0.035426        -0.506874
Te        6.41738        7.50788        2.64627        2        0.543045        -0.403293        -0.389402
Te        3.29817        9.22875        1.96762        2        0.184525        0.105489        -0.284263
Te        7.61281        1.98035        4.95309        2        -0.032227        -0.223529        -0.284365
Te        11.14363        3.62823        5.46471        2        0.021897        0.121894        0.154782
Te        13.39260        10.98070        2.37665        2        0.102289        -0.089234        0.114391
Te        9.69145        1.83001        2.18350        2        -0.315111        0.036146        -0.793565
Te        7.69573        5.65326        5.31826        2        -0.474844        0.037373        -0.070672
Te        11.02725        7.50190        5.85123        2        -0.157627        -0.229882        0.099239
Te        13.24545        3.44107        2.90923        2        0.202599        0.688544        -0.088456
Te        9.98395        5.84954        1.89194        2        0.074158        -0.607705        -0.770234
Te        7.52115        9.18069        5.51308        2        0.239829        0.071375        -0.572093
Te        10.83031        11.04497        5.90737        2        0.138178        -0.096951        -0.391069
Te        13.44504        7.55883        2.51411        2        0.130374        -0.171726        0.254089
Te        9.92164        9.36035        1.87414        2        0.163368        -0.675521        -0.381871
Te        14.48059        1.53924        5.35279        2        0.179793        0.197239        -0.436859
Te        18.15945        3.70419        5.62862        2        -0.137670        -0.328752        -0.304680
Te        20.52997        11.09205        2.47611        2        -0.702406        -0.319602        0.182317
Te        16.77999        1.69678        1.81098        2        0.118169        0.416792        0.447384
Te        14.63041        5.60560        5.16537        2        -0.079846        -0.170487        -0.237040
Te        18.17711        7.68453        6.05135        2        -0.872662        -0.387112        -0.320851
Te        20.11673        3.85424        2.57257        2        0.082170        0.184841        0.584710
Te        16.68281        5.50794        2.51855        2        -0.088576        0.452398        -0.939290
Te        14.45793        9.26651        5.38554        2        -0.286518        0.564096        0.140343
Te        18.01758        0.02133        5.84913        2        -0.375692        -0.143894        -0.742252
Te        20.52024        7.43207        2.46790        2        -0.579368        0.245480        0.006842
Te        17.01014        9.16514        1.83821        2        -0.427266        0.211212        0.867797
