54
Lattice="19.173937585 0.000456147 -0.025753600 -0.000245476 10.927967962 0.000007040 0.013560576 0.000001770 30.000000000" Properties=species:S:1:pos:R:3:tags:I:1:forces:R:3 energy=-317.77703007 stress= -2.81884 -9.17767 0.60829 -0.18810 0.65500 -0.14173 pbc="T T T"
Mo        2.24649        0.05991        3.92359        1        -0.839687        -0.289887        -0.946906
Mo        4.56429        1.77072        3.79471        1        -0.516648        0.724803        1.090702
Mo        2.01311        3.54740        3.72657        1        1.947297        0.375131        0.763306
Mo        4.52995        5.44645        3.81665        1        -1.339428        0.749294        0.181335
Mo        2.17768        7.39864        3.79236        1        -0.412868        -1.074786        -0.107919
Mo        4.54374        8.99497        3.75013        1        -0.781144        0.012622        1.137049
Mo        8.66415        0.02714        3.65300        1        -0.359791        -0.637127        0.502292
Mo        10.89936        1.58719        3.97606        1        -0.807311        0.965499        0.424399
Mo        8.56438        3.52367        3.57078        1        0.820815        0.192612        -0.418251
Mo        10.86578        5.60891        3.89638        1        -0.839775        -0.348105        -0.416405
Mo        8.51339        7.39404        3.59306        1        0.996555        0.180306        0.169544
Mo        10.91721        9.05349        4.02447        1        -0.215182        0.770548        -0.168638
Mo        14.82913        10.84536        3.98397        1        1.391195        -0.230660        0.697750
Mo        17.21103        1.64196        4.24313        1        -0.034126        0.891094        1.655151
Mo        14.93564        3.65905        3.91917        1        -0.516520        0.361923        0.028632
Mo        17.11205        5.53153        4.16743        1        0.070159        -0.439731        0.693962
Mo        14.90465        7.32105        3.98329        1        -0.086712        0.391265        -1.118656
Mo        17.16087        9.23331        4.35580        1        0.577862        -0.394320        -1.625525
Te        0.82576        1.90531        5.64452        2        -0.561997        -0.461587        -0.519593
Te        4.03046        3.75558        5.74154        2        -0.810090        -1.198632        -0.056182
Te        6.02072        10.88641        2.39046        2        0.800877        0.177453        -0.662867
Te        2.70373        1.70287        1.84731        2        -0.187090        0.452917        -0.350363
Te        0.51576        5.43623        5.21296        2        0.573053        0.117513        0.466715
Te        3.98610        7.24921        5.79256        2        0.070691        0.255127        -0.199832
Te        6.14573        3.84953        2.42529        2        -0.458379        -1.541422        -1.393931
Te        2.75825        5.44018        1.81877        2        -0.523791        0.195802        0.121538
Te        0.76848        9.05769        5.42411        2        -0.419191        0.497416        0.612640
Te        4.04350        10.92240        5.76180        2        0.674239        -0.104100        0.723029
Te        5.80589        7.24525        2.07261        2        1.030735        0.452469        0.185245
Te        2.46014        9.15235        1.87064        2        0.777721        0.289657        -0.250820
Te        6.99395        1.84263        5.23625        2        0.535548        -0.440822        -0.495043
Te        9.96836        3.76393        5.75562        2        0.977977        -0.675546        0.047802
Te        12.50573        0.02329        2.52606        2        -0.032110        -0.579603        -0.402814
Te        9.23937        1.76880        1.64268        2        0.394346        -0.013301        0.539814
Te        7.04862        5.34251        4.99131        2        0.242506        1.146597        0.728280
Te        10.29427        7.31461        5.86343        2        -1.040257        -0.447376        0.124419
Te        12.50124        3.63867        2.49332        2        -0.500629        -0.047485        0.341221
Te        9.24023        5.58724        1.68560        2        0.216993        -0.539563        0.457454
Te        6.99052        9.00915        5.24138        2        0.261140        0.321517        -0.639634
Te        10.20307        10.75884        6.03914        2        -0.214177        0.740069        -1.236404
Te        12.54370        7.36454        2.55667        2        -0.252312        -0.046502        -0.688473
Te        9.59631        9.15542        1.67788        2        -1.016934        -0.000562        0.850074
Te        13.32527        1.76694        5.45287        2        -0.179562        0.273564        -0.070591
Te        16.40550        3.64280        6.13888        2        0.577634        -0.084476        -0.470291
Te        18.86630        0.05523        2.85433        2        -0.634346        -0.327369        -0.508801
Te        15.61127        1.77670        2.16817        2        -0.131481        -0.189198        -1.078453
Te        13.23315        5.60522        5.32727        2        0.165041        -0.987960        0.442429
Te        16.39813        7.40303        6.06711        2        0.762018        -0.893283        1.925467
Te        18.60225        3.59752        2.70094        2        -0.182154        -0.129069        -0.268848
Te        15.53337        5.56170        1.99160        2        -0.086983        -0.638161        0.127000
Te        13.33286        9.02123        5.65680        2        -0.054761        0.382098        -0.767676
Te        16.49042        10.89148        6.26404        2        -0.139763        0.625682        0.071434
Te        18.60696        7.35519        2.85027        2        0.603646        0.245228        -0.851859
Te        15.73210        8.97585        2.01665        2        -0.291091        0.984668        0.640702
