54
Lattice="19.174335959 0.000456436 -0.025753600 -0.000245188 11.539990792 0.000007040 0.013560858 0.000001769 30.000000000" Properties=species:S:1:pos:R:3:tags:I:1:forces:R:3 energy=-310.84810718 stress= -9.19026 -10.79574 -3.29864 -2.28309 -1.47672 1.75515 pbc="T T T"
Mo        2.21124        0.02583        3.81843        1        1.088685        -0.259339        1.189723
Mo        4.80087        2.75313        3.75200        1        0.057777        -1.609113        -1.054859
Mo        2.16374        3.90057        3.88280        1        0.248797        0.138365        -0.770466
Mo        4.53207        5.71574        3.58708        1        -0.138614        -1.022768        1.075237
Mo        2.33170        7.64069        3.35018        1        0.577373        0.418927        0.839492
Mo        4.48830        9.91296        4.06564        1        -0.742207        -1.072949        1.302005
Mo        8.62062        11.26316        3.72584        1        -0.672443        -1.280425        1.152032
Mo        10.45525        1.59864        4.22403        1        1.349140        1.635871        0.874206
Mo        8.67496        4.08852        3.66257        1        -0.634783        0.379148        -1.196420
Mo        10.84178        6.03387        4.17079        1        -0.916995        0.501897        0.404353
Mo        8.67090        7.78217        3.93458        1        -1.414232        -0.040838        -0.152634
Mo        10.95222        9.24084        4.26250        1        -0.937896        0.053402        -2.029665
Mo        14.76558        11.38438        3.93649        1        0.674872        -0.527662        0.905870
Mo        17.41174        1.39351        4.12284        1        -1.526818        1.366704        0.727430
Mo        15.26196        3.62099        3.81957        1        -0.605045        -0.283687        1.576353
Mo        17.23536        6.04050        4.08414        1        -0.700236        0.066051        -0.546680
Mo        14.88444        7.77721        3.72627        1        1.108753        -0.366033        0.983600
Mo        17.15187        9.78254        3.98439        1        0.335866        -1.015768        0.117363
Te        0.98340        2.06882        5.52040        2        -0.769745        -0.884620        -0.447357
Te        3.99495        3.92894        5.86575        2        -0.331639        1.594962        -0.031300
Te        5.83235        0.22477        2.91368        2        1.977459        1.019761        -0.996919
Te        2.65566        1.88468        2.04222        2        0.564633        1.048406        -0.680199
Te        0.82219        5.95541        4.91235        2        -1.069320        0.415298        0.728720
Te        4.12347        7.61489        5.52243        2        -0.981594        0.227222        -0.201126
Te        6.02772        4.23073        1.73925        2        0.053441        -0.417353        1.312819
Te        2.58233        5.49664        1.61733        2        0.171791        0.496079        0.372732
Te        0.89607        9.66833        5.19014        2        -0.641317        -0.635597        -0.457453
Te        4.11926        0.55323        5.85088        2        -0.375097        -0.493375        -0.982143
Te        5.98274        7.78736        2.45283        2        0.498562        0.646092        0.042757
Te        3.36104        9.59032        1.73040        2        -1.375616        0.273011        -0.188445
Te        7.46508        2.03878        5.27826        2        -0.524382        -0.089395        -0.914259
Te        9.83819        3.88150        5.98312        2        1.152205        -0.015459        0.254199
Te        12.19926        11.32121        2.65780        2        0.101307        0.301462        0.480101
Te        9.04022        1.75998        2.06841        2        -0.387258        1.083239        -1.382743
Te        6.87564        5.93159        5.34428        2        0.769130        -0.448305        -1.167049
Te        9.90155        7.75235        6.30265        2        0.982420        -0.824835        -0.684795
Te        11.69279        3.78930        3.00458        2        0.254394        -0.555125        -0.479088
Te        9.11285        6.24491        1.73687        2        0.258225        -1.342691        1.314087
Te        7.10463        9.68218        5.42806        2        -0.453751        0.065572        -0.330950
Te        10.20866        11.22623        5.97464        2        -0.250928        -0.412748        0.784565
Te        12.45908        7.53939        2.51182        2        -0.855977        0.297615        0.111813
Te        9.36305        9.45935        1.85865        2        0.125037        0.508162        0.787328
Te        13.25896        1.65734        5.57400        2        -0.095635        0.145262        -1.063507
Te        16.76935        3.67394        6.02786        2        0.225696        0.139524        -1.142846
Te        18.76094        11.42044        2.51262        2        0.925974        0.224099        -0.768641
Te        15.45447        1.61817        2.10299        2        0.490609        0.187573        -0.538029
Te        13.54857        5.58899        5.03294        2        0.072938        0.060583        0.161968
Te        16.54515        7.97432        5.87160        2        0.112237        -0.729194        0.295991
Te        18.40962        3.84518        2.88378        2        0.755191        -0.640969        -0.063114
Te        15.45246        5.44194        1.96447        2        0.420325        1.300532        0.247134
Te        13.34030        9.39541        5.49076        2        0.621817        -0.160595        0.054232
Te        16.49759        11.34809        6.07306        2        0.094795        0.504003        -0.218394
Te        18.66692        7.87818        2.32754        2        0.160460        -0.600077        0.558234
Te        15.38782        9.55381        1.87807        2        0.160215        0.620769        -0.165386
