54
Lattice="19.940895089 0.000456147 -0.025753600 -0.000245476 10.309403738 0.000007040 0.013560576 0.000001770 30.000000000" Properties=species:S:1:pos:R:3:tags:I:1:forces:R:3 energy=-313.52601184 stress= -5.74206 1.58935 4.41126 -1.35110 0.11958 1.56983 pbc="T T T"
Mo        2.20340        10.11741        3.80694        1        -0.546668        0.657726        0.835748
Mo        4.43516        1.67058        3.91034        1        1.536642        -0.511394        -0.115013
Mo        2.24467        3.39618        3.71231        1        -1.685931        -0.806907        -2.057220
Mo        4.38791        5.17483        3.66880        1        3.451648        0.756976        0.326170
Mo        2.24075        6.59866        3.83895        1        0.363164        0.312480        -0.793947
Mo        4.71020        8.61453        3.90288        1        -0.233038        -0.196793        1.134017
Mo        8.73782        0.25626        3.56219        1        1.231224        -0.373548        -0.429682
Mo        11.15037        1.78836        3.91212        1        1.475943        1.170265        -1.310947
Mo        8.72041        3.18693        3.65656        1        1.271274        0.720598        0.667889
Mo        11.11171        5.45232        4.15418        1        0.368020        -2.445815        -2.828613
Mo        8.97780        7.38027        3.71407        1        -0.511357        -0.243949        2.035786
Mo        11.43965        8.79138        3.87642        1        -0.351048        -0.495984        2.104325
Mo        15.61749        0.13658        4.00588        1        -0.227575        -1.134849        2.126952
Mo        17.98590        1.74064        4.11670        1        -0.659939        -0.388294        1.301974
Mo        15.33104        3.39827        3.88316        1        -0.287348        -0.402685        -1.619421
Mo        17.94682        5.01983        3.95122        1        1.318633        0.588100        -0.613023
Mo        15.64338        6.56421        4.19646        1        -1.055204        1.258729        0.068905
Mo        18.31975        8.64565        4.41719        1        -1.109402        -0.352077        -0.152408
Te        0.60346        1.84223        5.53258        2        0.006456        -0.685379        -0.397870
Te        3.95789        3.58753        5.58800        2        0.515679        -0.615767        3.059386
Te        6.15527        0.10603        2.34758        2        0.406323        -0.001567        -0.887417
Te        2.85045        1.46709        1.82717        2        -0.399135        0.543301        -0.456303
Te        0.60212        4.89391        5.33296        2        -0.603142        0.137407        0.260898
Te        4.19595        6.84919        5.95845        2        0.048977        -0.025214        -1.486638
Te        6.47480        3.36670        2.12628        2        -1.428034        0.075277        0.268599
Te        2.70707        4.98258        1.63847        2        -0.354861        0.161804        -0.278208
Te        0.94158        8.07687        5.61000        2        -0.838971        1.644126        0.326962
Te        3.78245        10.29703        5.85752        2        0.806165        -0.030075        0.640876
Te        6.62399        7.10748        2.29454        2        -1.434525        0.231598        0.378013
Te        2.85892        8.37244        1.97812        2        0.349077        0.074284        -1.284903
Te        7.12873        1.79099        5.27881        2        -0.997881        0.491439        0.180174
Te        10.35357        3.47159        6.02317        2        0.141358        0.475590        -1.417372
Te        13.21937        10.16573        2.42327        2        0.045359        0.774355        0.032305
Te        9.83029        1.83108        1.63248        2        -0.374951        0.162866        -0.563970
Te        7.26187        4.96402        5.18509        2        -0.675708        1.556627        -0.397347
Te        10.62627        7.01010        5.98242        2        -0.825872        2.326857        0.963136
Te        12.89096        3.39897        2.51517        2        -0.054913        0.421914        -0.371820
Te        9.21778        5.37205        1.99756        2        1.346335        -0.663318        0.120334
Te        7.30530        9.17048        5.35505        2        -0.665462        -2.532621        0.020507
Te        10.27414        0.35509        5.73372        2        0.172215        -2.819099        1.617879
Te        12.97173        6.84953        2.54155        2        0.192321        -0.117609        0.466846
Te        9.90978        8.81389        1.73611        2        -0.487490        0.195411        -0.658821
Te        13.67797        1.67891        5.29831        2        0.060041        -0.027149        0.684059
Te        16.91165        3.60388        5.83011        2        0.984375        -1.810031        2.612667
Te        19.64172        0.05198        2.63517        2        -0.253085        -0.909944        -0.233261
Te        16.32789        1.51857        2.00662        2        -0.059944        1.426679        -0.911847
Te        13.67133        5.08051        5.44349        2        0.191601        0.117632        0.308201
Te        17.56253        6.56833        6.11736        2        -0.037404        1.151213        0.260654
Te        19.41748        3.19804        2.34445        2        0.653438        0.955346        -0.274991
Te        16.09196        5.14789        2.05165        2        0.219335        -0.369326        -1.278687
Te        13.97947        8.57856        5.75093        2        0.058724        0.135444        -1.056912
Te        17.37179        0.03697        6.34158        2        -0.165558        0.080137        -1.244831
Te        19.65919        6.99412        2.32226        2        -0.242686        -0.775717        1.125049
Te        16.56834        8.44320        2.47523        2        -0.619583        0.128688        -0.782844
