54
Lattice="19.173937585 0.000456147 -0.025753600 -0.000245476 10.309403738 0.000007040 0.013560576 0.000001770 30.000000000" Properties=species:S:1:pos:R:3:tags:I:1:forces:R:3 energy=-320.64978279 stress= 1.97905 2.35120 2.50318 1.16140 0.77710 -0.17205 pbc="T T T"
Mo        2.22122        10.23375        3.70494        1        -0.410919        0.390924        -0.237324
Mo        4.39657        1.68226        3.87113        1        1.105332        0.059384        0.892481
Mo        2.15939        3.39490        3.84055        1        0.405176        0.937569        -1.542237
Mo        4.45166        5.18894        3.78796        1        0.549770        -0.611226        0.825859
Mo        2.13838        6.99892        3.70663        1        -0.787771        -1.293407        -0.141582
Mo        4.48513        8.53847        3.82092        1        -0.261242        0.262483        0.661458
Mo        8.55509        10.30376        3.86385        1        -0.156755        -0.099572        -1.499920
Mo        10.79660        1.70792        4.16726        1        0.711427        -0.814773        -1.189335
Mo        8.54146        3.40467        3.84554        1        -0.387398        0.274240        -0.245880
Mo        10.83529        5.16282        4.12187        1        0.518050        -0.415157        0.354611
Mo        8.66586        6.81699        3.71798        1        -0.702165        1.271922        1.903449
Mo        11.02552        8.57152        4.12116        1        -1.452712        0.062232        0.454141
Mo        14.86301        0.03209        3.91156        1        0.322951        0.406997        0.267237
Mo        17.25986        1.70994        4.01402        1        -0.196623        0.237553        -0.046731
Mo        14.96348        3.43190        3.97754        1        -0.735656        0.118583        -0.439400
Mo        17.30529        5.15688        4.02891        1        -0.054558        0.307473        0.873654
Mo        15.00388        6.84793        3.89066        1        -0.784742        0.371813        1.434759
Mo        17.25464        8.71466        4.06107        1        -0.451419        -0.766562        -0.569274
Te        0.63317        1.77237        5.13682        2        -0.691129        -1.035123        1.903226
Te        3.98752        3.45373        5.85824        2        -0.340368        -0.050295        0.019940
Te        6.01991        0.05221        2.29297        2        0.587256        -0.318294        -0.038824
Te        2.83703        1.66855        1.80921        2        -0.694291        0.477706        -1.232019
Te        0.60299        5.17136        5.40045        2        0.189366        0.545465        -0.231809
Te        3.78474        6.76040        5.82216        2        0.127876        0.790726        -0.058377
Te        6.14572        3.38207        2.29706        2        -0.332568        0.265540        0.206756
Te        2.70128        5.08380        1.75433        2        -0.182580        0.405753        0.219372
Te        0.60407        8.75799        5.31745        2        -0.033198        -0.957623        0.497297
Te        3.84217        10.20884        5.86327        2        0.076887        0.220558        0.023017
Te        6.04855        6.89631        2.34880        2        0.825778        -0.307350        -0.734924
Te        2.77331        8.53284        1.67344        2        0.133084        0.377395        -0.213666
Te        6.75546        1.69285        5.25040        2        1.098280        0.039040        0.420605
Te        10.17413        3.31580        6.03305        2        -0.656302        1.396586        1.093735
Te        12.39951        0.03396        2.55357        2        0.471850        0.002176        -0.008189
Te        9.28429        1.71916        1.89642        2        -0.004140        -0.088290        0.125450
Te        6.88716        5.15823        5.29149        2        0.323979        0.266781        -0.276116
Te        10.20479        6.90632        6.16475        2        -0.284052        -0.426714        -1.190177
Te        12.51567        3.39777        2.60403        2        -0.569394        0.192459        -0.002582
Te        9.33451        5.18837        1.87266        2        0.039920        -1.160755        -0.730376
Te        6.92912        8.61501        5.18835        2        -0.141756        -0.722468        0.634502
Te        10.01122        10.23736        6.10652        2        0.630945        0.117155        -0.294640
Te        12.54078        6.80328        2.64100        2        -0.208522        0.107384        -0.382302
Te        9.47435        8.60825        1.86548        2        -0.423058        0.157799        0.497669
Te        13.29973        1.80602        5.53397        2        0.110265        -0.737337        0.148805
Te        16.61827        3.40484        6.02659        2        0.561430        0.263936        0.378672
Te        18.88638        0.04220        2.48640        2        -0.558099        -0.210154        -0.804296
Te        15.46649        1.82228        1.92162        2        0.405292        -0.691361        0.097994
Te        13.25393        5.04531        5.56753        2        0.610851        0.682476        -0.159352
Te        16.59885        6.90473        6.04241        2        0.480417        -0.012683        -0.309679
Te        18.85604        3.48345        2.50959        2        -0.053881        -0.132046        -0.679436
Te        15.59393        5.14999        2.00703        2        -0.081259        -0.273327        -1.091246
Te        13.44086        8.58056        5.59997        2        -0.184669        0.010087        -0.399668
Te        16.54239        0.04817        6.01531        2        0.228451        0.162518        0.407956
Te        18.63690        6.97341        2.27508        2        0.769819        -0.117993        0.699783
Te        15.44013        8.62439        1.96044        2        0.511469        0.074226        -0.293806
