54
Lattice="18.429676749 0.000008540 -0.000615361 -0.000005198 11.278316666 0.000045896 0.042448411 0.000094922 30.000000000" Properties=species:S:1:pos:R:3:tags:I:1:forces:R:3 energy=-317.01331752 stress= -2.82595 -11.86415 -1.80652 -0.33272 0.99387 -0.33570 pbc="T T T"
Mo        2.32333        0.14832        3.90124        1        0.748401        -0.984162        -1.535550
Mo        5.44226        1.79745        3.97390        1        -1.056628        0.615938        1.507612
Mo        2.40687        3.93116        3.81155        1        -0.698477        -1.210119        0.584895
Mo        5.25445        5.65030        3.85221        1        1.232415        0.990310        1.248698
Mo        2.22089        7.59980        3.99648        1        0.181677        0.260184        -2.165988
Mo        5.51888        9.35440        4.25596        1        -0.462850        -1.893560        -1.944412
Mo        8.33591        11.16701        4.03373        1        -0.388268        0.652255        0.734203
Mo        11.57578        1.80997        4.11574        1        -0.973860        0.407915        -1.994393
Mo        8.61388        3.55813        4.11506        1        -0.635113        1.314955        0.315247
Mo        11.42227        5.63562        4.11189        1        1.017006        -0.253463        -1.504718
Mo        8.62052        7.52493        4.05853        1        -0.013586        0.069017        0.378656
Mo        11.57461        9.27929        3.93460        1        -0.315983        -0.449351        0.368785
Mo        14.57407        0.05648        3.73825        1        0.656929        -1.225418        0.885086
Mo        17.57319        1.80977        3.72788        1        -0.170409        0.729028        0.579097
Mo        14.66468        3.73641        3.78493        1        -1.230901        -0.073050        0.132487
Mo        17.57345        5.70808        3.70157        1        -0.010976        -0.447714        0.776815
Mo        14.66497        7.81401        3.92387        1        -0.790396        -2.559631        -2.007522
Mo        17.69447        9.56621        3.75032        1        1.052731        0.586813        -0.069615
Te        1.25462        2.01819        5.49037        2        -0.081812        0.310944        0.495426
Te        4.53573        3.85726        5.70176        2        -1.045074        -0.617301        0.012011
Te        1.31611        1.97127        2.08387        2        0.348751        0.146501        -0.035543
Te        4.61434        11.00178        2.30132        2        -0.470202        1.202195        -0.090267
Te        1.15468        5.69663        5.48261        2        -0.002232        -0.453325        1.107313
Te        4.17538        7.46528        5.84344        2        0.782337        -0.087089        -0.350319
Te        1.26307        5.59333        1.98745        2        0.345576        0.860203        0.367106
Te        4.52699        3.70000        2.23473        2        -0.395904        -0.141759        -1.395387
Te        1.41514        9.58514        5.62531        2        -1.306883        -0.099849        0.230375
Te        4.32590        11.21134        5.67956        2        0.144424        1.022162        1.227640
Te        1.48357        9.51396        2.01665        2        -0.654867        0.071261        0.855255
Te        4.31120        7.63581        2.19995        2        0.462189        -0.256303        0.732756
Te        7.38288        1.85043        5.89085        2        0.304879        -0.338032        -0.320442
Te        10.69521        3.74287        5.83846        2        -0.530078        -0.576401        0.830071
Te        7.36783        2.02733        2.32100        2        1.734410        -1.491580        -1.348319
Te        10.44800        11.16740        2.36410        2        0.182816        0.525103        -0.303186
Te        7.46942        5.73750        5.66321        2        -0.390555        -1.036290        0.231931
Te        10.68002        7.44490        5.85522        2        -0.421939        0.888463        0.254446
Te        7.57622        5.49781        2.38012        2        -0.152417        0.341471        -0.119794
Te        10.64391        3.76252        2.29858        2        -0.562154        -0.926106        0.093606
Te        7.47824        9.36061        6.04750        2        0.524520        -0.168599        -0.698608
Te        10.33155        11.26389        5.86770        2        1.154966        -0.456429        -0.799227
Te        7.55662        9.16116        2.31188        2        -0.761167        1.004302        -0.149406
Te        10.43805        7.29511        2.04262        2        0.621683        0.727246        1.251174
Te        13.61997        1.87436        5.63880        2        1.271348        -0.317469        0.545814
Te        16.52909        3.61349        5.58216        2        1.495337        0.522530        -0.076622
Te        13.61633        1.92822        2.08877        2        -0.864835        -0.288118        -0.118668
Te        16.71307        0.11375        1.77925        2        -0.570261        -0.579136        1.210206
Te        13.71749        5.51392        5.71369        2        0.019082        1.049205        -0.829725
Te        16.74454        7.75446        5.48562        2        0.495840        -0.756881        0.865402
Te        13.39623        5.56850        2.16315        2        0.864488        1.025397        0.693613
Te        16.60732        3.88208        1.90961        2        0.189860        -0.669259        0.400980
Te        13.63999        9.34236        5.72014        2        -0.430383        1.510270        0.085513
Te        16.60695        11.16157        5.73108        2        0.067879        0.896845        -1.563774
Te        13.51057        9.36897        1.96649        2        0.190248        0.429997        0.811044
Te        16.75065        7.67236        2.05865        2        -0.694077        0.191677        -0.394082
