54
Lattice="20.641237959 0.000008540 -0.000615361 -0.000005198 10.639921383 0.000045896 0.042448411 0.000094922 30.000000000" Properties=species:S:1:pos:R:3:tags:I:1:forces:R:3 energy=-309.99473695 stress= -20.02221 -6.53732 -5.80616 1.41720 -0.55683 0.57914 pbc="T T T"
Mo        2.64952        10.40216        3.90350        1        -1.743764        -0.343152        0.864661
Mo        6.14628        1.80280        3.78446        1        0.775075        0.544639        1.312950
Mo        2.71748        3.12589        3.58726        1        0.107904        0.778580        2.690852
Mo        6.28775        5.44024        3.83369        1        -0.981884        -0.361759        1.515528
Mo        2.59536        6.80577        4.08575        1        0.758885        -0.106328        1.473958
Mo        6.31519        9.17393        4.09736        1        -1.110728        -1.132011        0.115905
Mo        9.94749        0.11338        3.71293        1        -0.606127        0.648167        1.096476
Mo        13.10977        1.85150        4.09187        1        -0.935321        0.389230        -1.211222
Mo        9.58957        3.72229        3.93438        1        -0.777517        0.797671        0.397842
Mo        12.71689        5.48046        4.13173        1        -0.699819        -0.074324        -1.406188
Mo        9.62027        7.24636        3.75454        1        -1.277690        -0.186560        1.189119
Mo        13.04799        8.99424        3.86932        1        -0.329086        -0.490551        0.121854
Mo        16.21941        10.50663        3.79994        1        1.122796        0.470043        0.399059
Mo        19.78348        1.94766        3.83727        1        0.118187        -2.052774        -0.587843
Mo        16.26504        3.66489        3.98759        1        0.076228        -0.205073        0.746459
Mo        19.84529        4.96078        3.97938        1        -1.094106        2.091859        1.989955
Mo        16.13358        7.05109        4.05958        1        -0.012859        0.173272        -0.805244
Mo        19.86285        8.74453        3.84759        1        0.587676        -0.414548        -0.622043
Te        1.55255        1.51841        5.66020        2        -0.301603        0.212996        -1.070005
Te        4.98211        3.46783        5.50545        2        0.024974        0.657807        -0.484422
Te        1.16188        1.74434        1.87995        2        0.845850        -1.058560        0.625307
Te        4.70164        0.11999        2.37236        2        1.287143        -0.519391        -1.462615
Te        1.33305        4.70341        5.77549        2        0.922551        0.696683        -1.321869
Te        4.98594        6.98313        6.00350        2        0.196483        0.483311        -1.946183
Te        1.38637        5.07805        2.38236        2        0.154572        0.083547        -1.150127
Te        5.04856        3.63445        2.04581        2        0.046141        -0.125962        0.104373
Te        1.28576        8.66747        5.77773        2        0.564956        -0.306463        -0.906547
Te        4.84468        0.16347        5.82780        2        0.429662        -0.323629        -1.158124
Te        1.61055        8.33768        2.20899        2        -0.571593        1.492045        -0.063516
Te        5.08306        7.29207        2.35319        2        -0.435657        0.205425        0.473209
Te        8.58365        1.91646        5.65763        2        -0.328781        -0.477983        -1.085648
Te        11.73717        3.63237        5.77425        2        -0.292454        -0.240300        0.196806
Te        8.51276        2.03826        2.08410        2        -0.068766        -0.990302        0.530930
Te        12.26263        0.19348        1.93537        2        -0.876909        -0.263216        1.501294
Te        8.35542        5.65939        5.70924        2        0.448395        -0.795989        -1.047202
Te        11.52241        7.36900        5.70069        2        1.042559        -0.027759        -0.419638
Te        8.28569        5.47885        1.98559        2        0.904846        -0.186710        0.800689
Te        11.69947        3.53864        2.29096        2        0.718705        0.519519        0.298676
Te        8.60012        9.14866        5.66974        2        0.258332        -0.105379        -1.044031
Te        12.19646        0.12960        5.83539        2        -1.220665        -0.670856        -0.720520
Te        8.44285        8.99019        2.16066        2        -0.203670        1.032849        -0.219277
Te        11.68213        7.12647        1.98678        2        0.609817        0.398415        1.240511
Te        15.24561        1.65246        5.76232        2        0.713738        0.507642        -0.494683
Te        18.42835        3.27390        5.79621        2        0.380337        0.897241        -0.274737
Te        15.15969        1.92792        2.33536        2        0.446326        -0.507942        -1.130220
Te        18.91623        10.61541        1.83273        2        -0.596120        -0.090990        1.557257
Te        14.94107        5.38340        5.70803        2        0.018849        -0.587939        0.999345
Te        18.54012        6.85496        5.55601        2        0.319648        0.460269        0.522249
Te        14.64766        5.45863        2.30276        2        1.692204        -0.682446        -0.044045
Te        18.47449        3.74380        2.24950        2        -0.852487        -1.508903        -1.665015
Te        15.21434        8.85415        5.76598        2        -0.311344        0.396371        -0.273236
Te        18.66995        10.52319        5.29855        2        -0.671296        0.759006        0.970951
Te        15.16573        8.67163        2.10269        2        -0.006211        0.688854        0.001971
Te        18.34517        7.02211        2.44033        2        0.794273        -0.562191        -1.121215
