54
Lattice="19.557416337 0.000456147 -0.025753600 -0.000245476 10.309403738 0.000007040 0.013560576 0.000001770 30.000000000" Properties=species:S:1:pos:R:3:tags:I:1:forces:R:3 energy=-320.53115436 stress= -5.60753 -1.57784 -1.86399 -0.22058 -1.76096 0.20280 pbc="T T T"
Mo        2.17191        0.04505        3.86950        1        -0.234927        -0.085142        -0.277443
Mo        4.52520        1.76887        3.94470        1        0.220058        0.081973        0.235045
Mo        2.11979        3.42557        3.81497        1        0.892946        0.222181        -0.936079
Mo        4.52268        5.17816        3.87166        1        0.329754        -0.718193        0.661184
Mo        2.18982        6.74584        3.82514        1        0.251288        0.537030        0.058095
Mo        4.55991        8.57034        4.01210        1        0.158392        0.403786        0.658158
Mo        8.66790        0.12830        3.93213        1        0.845660        -0.766115        0.597592
Mo        11.15844        1.64673        4.18706        1        -0.435163        0.327506        0.099202
Mo        8.75287        3.52231        3.90784        1        -0.211821        -0.119255        -0.791423
Mo        11.10483        5.21168        4.03141        1        0.137522        -0.359345        -0.021485
Mo        8.71428        6.91945        3.84675        1        0.213794        -0.010035        1.046922
Mo        11.16603        8.49792        4.10326        1        -0.900478        0.564083        0.394495
Mo        15.19411        10.24999        3.91642        1        0.460898        0.550647        0.478221
Mo        17.51882        1.78269        3.98129        1        0.840105        -0.563069        -1.193553
Mo        15.17162        3.39427        3.65308        1        1.202062        0.393173        1.532503
Mo        17.65028        5.20876        3.77701        1        -1.411803        -0.705159        0.638675
Mo        15.18143        6.86216        3.72003        1        0.641425        -0.728099        0.761202
Mo        17.65394        8.49119        4.01467        1        -0.455439        0.897694        -0.795091
Te        0.48790        1.86519        5.32988        2        0.020465        -0.779761        0.392002
Te        3.97026        3.43293        5.97237        2        -0.378629        0.326899        -0.858905
Te        6.23700        0.08924        2.47690        2        -0.183173        -0.316266        -0.010000
Te        2.76473        1.67080        1.80267        2        0.400817        0.365338        0.588427
Te        0.38031        5.09276        5.31602        2        0.950212        0.342050        0.023866
Te        4.07317        6.78025        5.96692        2        -0.817073        0.380150        -0.335445
Te        6.26247        3.41001        2.33426        2        -0.317912        0.306197        0.581193
Te        2.71585        5.17911        1.70535        2        0.408279        -0.419242        0.930268
Te        0.58335        8.50796        5.35976        2        0.069269        0.213978        0.188086
Te        3.88588        0.04616        5.94969        2        0.146753        -0.148933        0.035323
Te        6.18446        6.91015        2.50898        2        0.304953        -0.048808        -0.697807
Te        2.90868        8.60993        1.95272        2        -0.371992        -0.278560        -0.413139
Te        7.17422        1.81349        5.40062        2        -1.045947        -0.104019        0.363585
Te        10.35607        3.61178        6.04221        2        0.356676        -1.148511        0.061124
Te        12.74113        10.16650        2.58823        2        -0.323692        0.786395        0.004064
Te        9.49970        1.71953        1.96410        2        0.230113        0.522265        0.453536
Te        7.10036        5.18773        5.47989        2        -0.154967        -0.157113        -0.707302
Te        10.40308        6.86037        6.10395        2        -0.096870        -0.063760        -0.708919
Te        12.72004        3.34286        2.49015        2        -1.029553        -0.050495        -0.188923
Te        9.38228        5.22629        1.91859        2        0.172924        -0.254869        -0.289360
Te        7.06277        8.55287        5.38033        2        -0.029435        0.436938        0.104571
Te        10.28465        10.18347        6.20088        2        0.437437        0.640548        -1.282747
Te        12.63186        6.82764        2.39750        2        0.212281        0.211504        0.042407
Te        9.44943        8.73065        1.99599        2        0.069321        -0.495015        -0.215125
Te        13.83721        1.86584        5.50861        2        -1.189037        -0.949477        -0.063818
Te        16.83255        3.53645        5.81526        2        0.068247        0.024795        -0.034653
Te        19.29126        0.01545        2.37164        2        -0.517908        -0.168185        0.532668
Te        15.79300        1.58027        1.86819        2        0.432427        0.175588        -0.623415
Te        13.66992        5.05572        5.28150        2        -0.525565        0.791129        0.220192
Te        16.86584        6.80960        5.91587        2        0.052850        -0.022991        -0.602186
Te        19.31629        3.39917        2.24722        2        -0.852120        -0.027633        0.475065
Te        15.74228        5.12253        1.73316        2        0.520526        0.481243        -0.498057
Te        13.72046        8.51535        5.42413        2        -0.625983        -0.106944        0.309921
Te        17.00236        0.00475        5.92343        2        0.035298        -0.086062        0.241959
Te        19.23838        6.84528        2.37640        2        0.377358        0.567233        -0.423896
Te        15.83593        8.68872        1.91777        2        0.668282        -0.878582        -0.731314
