54
Lattice="19.173937585 0.000456147 -0.025753600 -0.000245476 10.309403738 0.000007040 0.013560576 0.000001770 30.000000000" Properties=species:S:1:pos:R:3:tags:I:1:forces:R:3 energy=-316.30680848 stress= 2.45154 3.74472 -0.12862 -1.14023 -1.62629 1.12040 pbc="T T T"
Mo        2.14058        0.11218        3.90773        1        0.912912        -0.028365        0.561777
Mo        4.46837        1.91196        4.25784        1        -0.527571        0.488826        -1.766733
Mo        2.10217        3.38297        4.17264        1        1.303549        1.306326        -2.726570
Mo        4.53071        5.16355        4.09994        1        -0.440073        -0.319125        1.613430
Mo        2.07072        6.86155        4.11837        1        1.367671        -0.151817        -1.563426
Mo        4.52946        8.27467        4.26821        1        -0.501320        0.344734        0.694240
Mo        8.57899        0.21296        3.75005        1        0.330576        -1.212157        0.385298
Mo        10.96170        1.75488        3.80642        1        -1.187957        -0.083772        0.804893
Mo        8.64480        3.40382        3.52043        1        -0.561991        0.088059        1.248773
Mo        10.78164        5.19001        3.83511        1        0.337716        -0.535669        -0.056819
Mo        8.57569        6.96535        3.63977        1        0.120369        -0.668894        0.596076
Mo        10.91555        8.65150        3.80030        1        0.145707        -0.473911        0.643774
Mo        14.76084        10.28610        3.70258        1        1.704265        0.751670        2.341269
Mo        17.27407        1.64062        3.91010        1        -0.241629        1.551602        -0.931329
Mo        14.97212        3.17880        3.76554        1        -1.527436        1.189149        -0.862589
Mo        17.28481        5.03953        3.86759        1        -0.350706        0.949136        1.297728
Mo        15.00605        6.71647        3.61319        1        -0.606451        -0.115785        1.225904
Mo        17.28811        8.46774        4.18625        1        -1.163015        1.173523        -3.200265
Te        0.39563        1.89695        5.39615        2        0.014779        -1.496582        1.361863
Te        3.91157        3.46260        6.25549        2        -0.718344        0.544842        0.083169
Te        5.89621        10.29947        2.89894        2        0.355017        0.418150        -0.732286
Te        2.92929        1.81720        1.80795        2        -0.073252        -0.173877        2.187164
Te        0.49564        5.34539        5.51809        2        -1.114563        -1.771652        0.908038
Te        3.66409        6.72836        6.26874        2        0.602627        0.127190        -0.079638
Te        6.02408        3.74582        2.36094        2        -0.310386        -1.566509        -0.009644
Te        2.56582        5.12238        2.08638        2        0.782671        0.114479        0.528498
Te        0.45448        8.60136        5.40327        2        1.072891        0.939114        1.426992
Te        3.88212        10.26513        6.05701        2        -0.351912        0.053953        -0.085464
Te        5.96897        6.94512        2.53245        2        0.479226        -0.249339        -0.576413
Te        2.85998        8.53474        2.19935        2        0.142149        0.212972        -0.971909
Te        6.89850        1.91371        5.63081        2        0.472449        -0.816271        -0.897290
Te        9.93596        3.31512        5.87414        2        1.607584        0.669421        -0.905098
Te        12.52174        0.08891        2.24888        2        -0.617499        -0.503164        -0.465281
Te        9.26597        1.66042        1.59544        2        -0.053760        0.185468        0.163035
Te        7.14445        4.70750        5.52535        2        -0.944907        1.905120        -0.436646
Te        10.16431        6.96608        5.80605        2        0.267753        -0.402080        -0.249861
Te        12.30306        3.35061        2.18343        2        1.269277        0.998440        0.054135
Te        9.09431        5.16306        1.60056        2        0.389558        0.568134        0.338642
Te        7.32508        8.70003        5.43727        2        -1.106856        -0.508143        -0.019978
Te        10.42995        0.01873        5.77931        2        -0.417043        0.271185        0.347173
Te        12.43402        6.96482        2.20917        2        0.301482        -0.756335        0.144915
Te        9.26143        8.63115        1.77632        2        -0.555820        0.791472        -0.796190
Te        13.50960        1.70291        5.64789        2        -0.630356        0.170015        -1.135677
Te        16.48214        3.44498        5.88207        2        0.781630        0.037366        0.173602
Te        18.88955        10.27531        2.51165        2        0.109777        -0.125963        -0.455662
Te        15.61676        1.55845        1.75742        2        0.130037        0.526161        -0.430337
Te        13.21419        5.14845        5.29949        2        0.429945        -0.183606        -0.747638
Te        16.43355        6.95822        6.03811        2        -0.344677        -1.628920        -0.259291
Te        19.00407        3.46370        2.39908        2        -0.346429        -0.400888        0.284572
Te        15.65096        4.88291        1.70767        2        -0.149367        0.573874        0.276147
Te        13.33082        8.53921        5.23218        2        -0.102278        -0.398638        0.035692
Te        16.58274        0.11761        5.78862        2        -0.870285        -0.907677        2.008994
Te        18.92076        6.88639        2.49816        2        -0.313372        0.127583        -0.035052
Te        15.69051        8.67014        1.94812        2        0.730819        -1.573445        -1.349048
