54
Lattice="19.940895089 0.000456147 -0.025753600 -0.000245476 10.309403738 0.000007040 0.013560576 0.000001770 30.000000000" Properties=species:S:1:pos:R:3:tags:I:1:forces:R:3 energy=-316.21634290 stress= -8.98979 -2.39475 -3.57824 -2.61697 -0.67119 1.19817 pbc="T T T"
Mo        2.18927        0.12743        3.92402        1        -0.180901        -0.126185        1.986077
Mo        4.59763        1.83379        4.37845        1        0.259043        -0.576909        -0.553469
Mo        2.22911        3.45863        4.01068        1        0.586239        0.969060        1.677175
Mo        4.68520        5.01341        4.19357        1        0.205842        1.309722        0.279739
Mo        2.19028        7.04762        4.10330        1        0.934213        0.274538        -0.684740
Mo        4.66650        8.69528        4.22871        1        -1.624271        -0.012193        -1.452614
Mo        8.77280        10.12011        3.67024        1        0.377406        0.356090        0.919750
Mo        11.29083        1.53872        3.68303        1        0.075460        -0.101151        0.196236
Mo        8.95647        3.21252        3.77274        1        -0.211353        0.026115        1.038456
Mo        11.22330        4.98864        3.82213        1        0.771347        -0.097395        1.952250
Mo        8.84439        6.74749        3.85231        1        0.226561        -0.531251        1.111297
Mo        11.12914        8.36218        3.94589        1        0.106965        0.179647        0.373498
Mo        15.58138        10.25560        3.66174        1        1.072313        0.200488        1.688192
Mo        18.00184        1.83645        3.81981        1        -0.649535        0.218026        1.652015
Mo        15.66576        3.51092        3.64899        1        -0.119410        0.026268        -0.417874
Mo        18.06406        5.24404        3.89070        1        -0.481396        0.249346        -0.263086
Mo        15.47697        6.96135        3.58251        1        0.348636        -1.338289        0.712910
Mo        17.98972        8.71932        4.05712        1        -1.292197        0.443467        0.932031
Te        0.39386        1.93034        5.30518        2        0.468066        -0.755144        0.838474
Te        3.97800        3.58692        6.36648        2        -0.400588        -0.460706        -0.996279
Te        6.10402        0.06698        2.47588        2        0.238203        -0.425595        0.803532
Te        3.06875        1.85004        2.14200        2        0.169932        -0.173926        -0.879582
Te        0.44740        5.45652        5.41356        2        0.270421        -1.100648        0.452109
Te        4.09051        6.93180        6.17555        2        -0.468185        -0.499142        -0.607259
Te        6.32187        3.28218        2.72809        2        -0.204480        0.248741        -0.439407
Te        2.86352        5.24225        2.14424        2        0.331967        0.439897        -0.078570
Te        0.54760        8.70987        5.60272        2        -0.110465        0.641367        -0.102556
Te        3.79630        0.10671        6.23053        2        0.003864        -0.483964        -0.648855
Te        6.43891        6.70424        2.54381        2        -1.433960        0.201940        0.246226
Te        2.77972        8.75551        2.05396        2        0.957698        -0.777072        0.118220
Te        7.51458        1.67481        5.65426        2        -0.719605        -0.386094        -0.807298
Te        10.80402        3.02325        5.82944        2        -0.034423        1.559178        -0.807842
Te        13.51450        10.23822        2.05940        2        -2.522728        -0.009646        -0.102700
Te        9.26243        1.59112        1.70204        2        0.799557        -0.629588        0.104634
Te        7.36475        5.02475        5.41673        2        -0.589873        -0.238798        0.292928
Te        10.55238        6.67943        6.06357        2        0.286831        -0.009601        -1.607619
Te        12.76811        3.34757        2.17679        2        0.718090        0.305097        -0.160637
Te        9.53308        4.96989        1.84395        2        -0.649918        0.188404        -0.602416
Te        6.98550        8.45786        5.49030        2        1.990541        0.633271        -0.278619
Te        10.46455        10.26873        5.82313        2        0.485202        -1.086779        -1.026630
Te        12.82495        7.05599        2.16176        2        0.277874        -0.358987        0.467644
Te        9.41483        8.21185        1.78804        2        0.352067        1.643813        -0.177926
Te        14.06545        1.75622        4.99570        2        -1.491052        -0.426350        0.662468
Te        17.30224        3.65682        5.96131        2        -0.251920        -0.409745        -1.410602
Te        19.48984        10.26414        2.49742        2        1.320786        1.406934        -0.751304
Te        16.31166        1.65683        1.70908        2        0.073521        0.740920        -0.198953
Te        13.76512        5.01197        5.20658        2        0.436887        0.539803        -0.735119
Te        17.05479        6.93843        5.77278        2        -0.067555        -0.063185        0.482106
Te        19.83471        3.44177        2.51060        2        -0.775696        0.749032        -0.652746
Te        16.48839        5.13986        1.66179        2        -0.371316        0.357249        0.467814
Te        13.98769        8.51077        5.24448        2        -0.835560        0.338557        -0.158793
Te        17.11524        0.38788        6.00187        2        0.306159        -1.122684        -1.242078
Te        19.67249        7.25799        2.57215        2        0.490340        -1.912385        -0.553634
Te        16.43937        8.59111        1.81850        2        0.553101        -0.132904        -1.077002
