54
Lattice="18.429676749 0.000008540 -0.000615361 -0.000005198 10.852719811 0.000045896 0.042448411 0.000094922 30.000000000" Properties=species:S:1:pos:R:3:tags:I:1:forces:R:3 energy=-318.13943453 stress= 1.17755 -3.43973 1.13543 2.34958 0.21882 0.60898 pbc="T T T"
Mo        2.31872        10.66380        3.82325        1        -0.042577        0.504218        0.211935
Mo        5.17074        1.73558        3.87561        1        1.033775        0.187738        -0.972352
Mo        2.49092        3.61908        3.83546        1        -0.879424        -0.269185        -0.149255
Mo        5.38955        5.08108        3.83889        1        -0.460503        1.723070        -0.174313
Mo        2.38284        7.31162        3.73632        1        -0.352954        -0.198224        1.592979
Mo        5.36442        8.92861        3.82300        1        -0.361303        0.226263        1.186816
Mo        8.50432        10.76150        4.00833        1        -1.731108        0.231757        -1.375437
Mo        11.68511        2.13324        3.99693        1        -0.204209        -1.304040        0.858136
Mo        8.51282        3.54672        3.99095        1        -1.236553        -0.511353        -0.650839
Mo        11.39629        5.51014        3.90263        1        -0.401229        -0.383876        1.088622
Mo        8.24623        7.17539        3.94234        1        0.874319        -0.255125        0.173557
Mo        11.33432        8.93152        4.16809        1        1.924525        0.066835        -1.490460
Mo        14.67435        10.82271        4.02901        1        -0.424356        1.274360        0.500264
Mo        17.77181        2.02991        3.87032        1        0.609479        0.635248        -0.775271
Mo        14.67630        3.63878        3.86882        1        0.940911        0.610428        0.737677
Mo        17.73499        5.47532        3.89260        1        -0.600945        -1.086253        0.283292
Mo        14.73065        7.56927        4.18007        1        -1.325555        -1.503458        -0.561687
Mo        17.85555        9.01085        3.91145        1        0.569591        0.850661        0.531664
Te        1.57034        1.76642        5.66308        2        -1.001151        0.106305        -0.753853
Te        4.38019        3.58789        5.74773        2        -0.271075        -0.991774        0.308324
Te        1.39455        1.86679        2.03632        2        -0.264145        -0.596503        0.523745
Te        4.40593        10.66847        2.00024        2        -0.505198        0.731355        0.314314
Te        1.42994        5.32815        5.55916        2        -0.242762        0.987398        0.275857
Te        4.29482        7.00170        5.63175        2        0.756993        0.543190        -0.581117
Te        1.35770        5.52896        2.08881        2        -0.338152        -0.628822        -0.462314
Te        4.23618        3.69029        1.88581        2        1.062513        -1.416206        -0.182814
Te        1.40671        8.87631        5.94442        2        -0.217244        0.533631        -1.987354
Te        4.25862        10.70359        5.66615        2        0.542200        -0.024662        -0.215212
Te        1.34545        9.04790        1.90436        2        -0.506152        -0.145590        0.404513
Te        4.54972        7.05404        2.06755        2        -0.699011        0.080848        -0.108627
Te        7.23823        1.67581        5.72570        2        0.580538        0.169937        -0.655573
Te        10.41141        3.82478        5.81522        2        0.843439        -1.073222        0.322006
Te        7.63992        1.60957        2.06144        2        -1.017222        0.611887        1.055327
Te        10.70969        0.19246        2.37023        2        -0.514156        -1.074303        -0.381321
Te        7.24073        5.23742        5.70587        2        1.073819        0.458875        0.331536
Te        10.34695        6.94893        5.90512        2        -0.507890        1.728211        -0.645710
Te        7.40059        5.28546        2.11253        2        0.779172        -0.240090        0.021186
Te        10.51530        3.62341        2.20409        2        -0.056932        0.664940        -1.186680
Te        7.27592        9.03445        5.71706        2        0.422169        -0.453361        0.267580
Te        10.51129        0.11954        5.61670        2        0.580510        0.741568        2.003156
Te        7.32105        9.01110        2.07233        2        1.294274        -0.039236        0.168046
Te        10.36616        7.26189        2.13448        2        -0.073720        0.381033        0.519704
Te        13.84815        1.84737        5.62778        2        -1.045591        0.508731        1.925816
Te        16.69005        3.70618        5.86584        2        0.212936        0.160779        -1.403576
Te        13.65199        1.82431        2.15431        2        0.161351        0.036499        -0.090904
Te        16.58345        0.06108        2.20222        2        1.533279        -0.065074        -0.235518
Te        13.61064        5.51159        5.64053        2        -0.134850        -0.027277        0.343037
Te        16.86444        7.19746        5.72414        2        -0.049969        0.832005        1.044543
Te        13.54686        5.63820        2.39112        2        0.824561        0.463063        -0.873318
Te        16.64562        3.77549        2.05272        2        0.323719        -0.189271        -0.124790
Te        13.43949        9.16530        5.97915        2        0.404634        -0.001994        -0.184882
Te        16.95934        0.27269        5.54183        2        -0.728328        -2.095201        1.415089
Te        13.66532        9.23824        2.30102        2        -1.541134        -1.564603        -0.561948
Te        16.58838        7.32036        2.31951        2        0.382985        0.088503        -1.629181
