54
Lattice="19.940895089 0.000456147 -0.025753600 -0.000245476 10.721779888 0.000007040 0.013560576 0.000001770 30.000000000" Properties=species:S:1:pos:R:3:tags:I:1:forces:R:3 energy=-315.03196343 stress= -8.82586 -7.19190 0.78399 -1.59612 2.14372 0.38094 pbc="T T T"
Mo        2.35612        10.68241        4.00732        1        2.017359        -0.295945        -0.858455
Mo        4.62652        1.92587        4.14452        1        -0.094103        0.134394        -1.704833
Mo        2.36065        3.67567        3.92943        1        -1.067465        -0.408075        -0.169190
Mo        4.67911        5.33294        3.98393        1        0.263521        0.123669        -0.062277
Mo        2.48350        6.96405        3.81734        1        -1.149098        1.294510        0.066954
Mo        4.76239        8.68115        4.08395        1        -0.064156        1.131176        -0.760382
Mo        8.87174        10.64326        3.75322        1        -0.997940        0.170314        -0.004926
Mo        11.03198        1.69265        3.82627        1        1.843682        0.383723        1.746055
Mo        8.80624        3.52018        3.55368        1        -0.434691        -1.293957        1.709472
Mo        11.07673        5.35390        3.89691        1        1.240493        1.064715        0.035443
Mo        8.96405        7.04381        3.80621        1        -0.920764        1.169995        -0.992327
Mo        11.23084        8.88292        3.99858        1        0.152502        0.760603        0.399068
Mo        15.53716        0.20053        3.95221        1        -1.250665        -1.372720        0.192696
Mo        18.22405        1.42617        3.80955        1        -2.099148        1.313924        0.887960
Mo        15.39448        3.58091        3.71035        1        0.752863        0.961384        0.291591
Mo        17.91545        5.53508        4.04312        1        -0.289911        0.160701        0.175546
Mo        15.45291        7.13277        4.00419        1        0.623710        0.048903        0.416052
Mo        17.92703        8.78683        4.14340        1        1.150072        -0.584624        -1.016412
Te        0.65135        1.79939        5.10969        2        0.440230        0.333579        1.616161
Te        4.03426        3.65685        6.06832        2        0.027819        0.030181        -0.057052
Te        6.27708        0.06992        2.22162        2        -0.034936        -0.341915        1.369039
Te        2.84105        1.91992        1.92036        2        0.541940        -0.861337        1.251257
Te        0.45257        5.36069        5.28491        2        0.867572        0.276197        0.289932
Te        4.17909        7.00602        5.97727        2        -0.773764        0.389846        0.828309
Te        6.18798        3.58460        2.50694        2        0.190743        -0.370820        -0.740731
Te        2.96938        5.17771        1.88689        2        0.086847        0.912715        -0.672454
Te        0.68682        8.75716        5.39726        2        0.387633        -0.118889        0.159796
Te        4.16731        0.04589        5.93016        2        0.218426        -0.945945        0.711119
Te        6.38930        7.37472        2.34344        2        -0.081326        -0.651691        0.344437
Te        3.06617        8.96469        1.91323        2        0.167897        -0.398239        1.135703
Te        7.26572        1.85928        5.27559        2        -0.094972        -0.252335        -0.239970
Te        10.40592        3.62661        5.67123        2        0.021251        -0.926830        1.065066
Te        12.97004        0.08620        2.52398        2        -0.192443        -0.341440        0.163826
Te        9.51062        1.58441        1.70467        2        -0.546632        0.595124        -0.334207
Te        7.13995        5.57405        5.17697        2        0.649092        -1.180658        0.550565
Te        10.45317        7.31360        6.04156        2        0.645549        -0.912837        -0.706986
Te        12.95514        3.51010        2.47998        2        -0.837959        0.242807        -0.479865
Te        9.26373        5.25140        1.80396        2        0.792616        1.407188        -1.661882
Te        7.33117        8.83186        5.58326        2        -0.132037        0.330427        -1.151313
Te        10.47246        0.07514        5.91805        2        0.406778        -0.208360        -0.579872
Te        12.97330        7.13095        2.70654        2        -0.417041        0.152135        -0.649169
Te        9.50961        8.91048        1.80542        2        0.353798        -0.587040        0.637869
Te        13.93133        2.02484        5.37625        2        -0.847314        -1.151178        0.207176
Te        16.98652        3.55102        5.83209        2        1.061988        -0.090044        -0.729772
Te        0.10449        10.67906        2.82877        2        -2.028572        -1.258257        -1.924986
Te        16.19904        1.64442        1.99237        2        0.698605        1.154706        -1.809458
Te        13.60996        5.35194        5.36412        2        0.474725        -0.134039        -0.254217
Te        17.24113        7.17578        6.16187        2        -0.390955        -0.351965        -0.760472
Te        19.53145        3.66273        2.60153        2        -0.013063        -0.130151        -0.068522
Te        16.23471        5.55470        1.96051        2        -0.063259        -0.786110        -0.259251
Te        13.83060        8.96275        5.40549        2        -0.083094        0.325851        -0.212118
Te        17.29431        10.63217        5.86437        2        0.383255        0.858229        1.393837
Te        19.93259        7.28773        2.31291        2        -1.175545        -0.302699        0.705709
Te        16.26054        8.88083        2.05412        2        -0.351019        0.500314        0.522089
