54
Lattice="19.557416337 0.000456147 -0.025753600 -0.000245476 10.309403738 0.000007040 0.013560576 0.000001770 30.000000000" Properties=species:S:1:pos:R:3:tags:I:1:forces:R:3 energy=-312.67144744 stress= -2.60724 3.59601 1.20965 0.79183 -4.27403 -0.52414 pbc="T T T"
Mo        2.21216        10.26108        3.56339        1        0.825384        0.163396        0.594612
Mo        4.75810        1.74907        3.73453        1        -2.071997        0.209154        -0.592795
Mo        2.09845        3.23782        3.73829        1        1.279313        0.611887        -0.401703
Mo        4.39386        5.14643        3.82267        1        1.376945        -2.132653        0.613922
Mo        2.25924        6.86083        3.68234        1        -1.487975        0.066239        0.258564
Mo        4.63119        8.29566        3.72096        1        -1.734471        1.484741        0.031025
Mo        8.54527        0.15998        3.79823        1        0.972752        -1.380188        2.227100
Mo        11.10116        1.83552        4.10838        1        -0.737367        0.210717        -0.333809
Mo        8.71573        3.76302        3.69507        1        0.716445        -1.225706        0.093727
Mo        11.00376        5.39959        3.90694        1        -0.246077        0.657858        0.758821
Mo        8.57212        6.86057        3.75962        1        1.480160        -0.733078        1.098406
Mo        11.04726        8.40689        4.15920        1        -0.379807        -0.274704        -0.787480
Mo        15.16436        10.16137        3.92913        1        0.179714        0.106066        2.795370
Mo        17.54700        1.78691        4.23049        1        0.883526        -0.780126        -1.930710
Mo        15.09423        3.31131        3.96839        1        2.060424        2.939886        4.050002
Mo        17.80539        5.14780        4.20830        1        -0.493099        1.273288        -1.006178
Mo        15.29211        6.67757        3.95488        1        -0.705893        3.119531        1.740413
Mo        17.61285        8.46916        4.16141        1        0.361219        0.913970        0.502375
Te        0.86489        1.54424        5.31948        2        -1.540702        0.582619        0.761607
Te        3.94163        3.21743        5.87263        2        -0.271520        0.600617        -1.372063
Te        6.16574        10.26759        2.09670        2        0.218393        0.045229        0.815552
Te        2.79542        1.74846        1.50032        2        0.262779        -0.420906        1.656606
Te        0.66221        5.17278        5.57446        2        0.539851        0.003610        -0.965234
Te        3.91250        6.69345        5.75567        2        -0.148936        1.105538        1.431832
Te        6.29207        3.58035        2.39122        2        -0.397846        -0.017707        -0.739452
Te        2.65802        4.98528        1.78194        2        0.338047        0.863217        -0.387416
Te        0.76254        8.80748        5.58505        2        -0.157421        -1.136131        -1.171761
Te        4.21281        10.07158        5.55912        2        -0.878253        1.342026        0.379378
Te        6.20029        6.83809        2.41222        2        0.868178        -1.209597        -1.750454
Te        2.75866        8.56025        1.64230        2        0.404591        -0.589971        -0.210832
Te        7.11408        1.95558        5.17759        2        -0.301161        -0.622927        0.525885
Te        10.40089        3.86392        5.86472        2        -0.471993        -1.446767        0.835754
Te        12.60245        0.03084        2.66587        2        0.330857        -0.791054        -0.130313
Te        9.47124        1.54035        1.91611        2        0.670928        2.543220        -0.925802
Te        7.09076        5.08718        5.56138        2        -0.253702        0.429232        -1.132708
Te        9.67911        7.20350        6.38504        2        0.977576        -0.934305        -2.014840
Te        12.81744        3.56904        2.75122        2        -1.396253        -0.732861        -1.775777
Te        9.50439        5.27708        1.56253        2        -0.180859        -0.090931        1.356788
Te        7.05546        8.53569        5.32832        2        -0.358368        0.440656        -0.188115
Te        10.49264        10.26467        5.95098        2        -0.836616        1.137954        0.107349
Te        12.80454        6.55794        2.28576        2        0.470212        1.473116        0.129329
Te        9.45908        8.69532        2.05351        2        0.118294        -0.691242        -1.174947
Te        13.61759        1.71852        5.47745        2        -0.794251        -0.856663        0.595697
Te        17.03110        3.59180        6.02947        2        -0.928161        -0.925361        2.008136
Te        19.05214        10.24569        2.44933        2        0.344968        0.474255        0.358286
Te        15.74818        1.72964        2.25345        2        1.296640        -1.478348        -3.886986
Te        13.68581        5.16554        5.47287        2        -0.928179        -0.070887        0.674609
Te        16.78557        7.00661        6.24345        2        0.638991        -0.742227        -0.846244
Te        19.17291        3.59052        2.09333        2        -0.261966        -0.644219        1.848373
Te        16.07846        5.15802        2.27510        2        0.568437        -2.034503        -4.209135
Te        13.44973        8.25933        5.42452        2        0.530286        1.057872        -0.083332
Te        17.01817        0.15041        6.18843        2        -0.686690        -1.056517        -0.834101
Te        19.12013        6.88944        2.30087        2        0.497938        0.137665        0.952221
Te        16.05331        8.62387        2.01932        2        -0.560022        -0.958605        -0.297008
