54
Lattice="19.173937585 0.000456147 -0.025753600 -0.000245476 11.340344112 0.000007040 0.013560576 0.000001770 30.000000000" Properties=species:S:1:pos:R:3:tags:I:1:forces:R:3 energy=-316.42762243 stress= -5.10556 -11.19203 -0.05304 0.05303 -1.29357 -0.29305 pbc="T T T"
Mo        2.15330        11.28885        3.75571        1        0.512398        -1.559722        -0.590767
Mo        4.50679        1.82588        4.04937        1        -0.313876        -0.407918        -0.838674
Mo        2.39704        4.01493        3.78553        1        -0.044675        0.184747        -0.203264
Mo        4.52383        6.04314        4.14953        1        -0.492037        -0.593154        -1.094892
Mo        2.20935        7.77356        3.84836        1        -1.086226        0.177208        -0.956344
Mo        4.47999        9.60914        3.94018        1        -0.077771        -0.535020        -0.156733
Mo        8.63219        11.30714        3.88333        1        -0.481658        -0.122580        -0.877317
Mo        10.63335        2.04621        4.20786        1        -0.259106        1.120022        0.348448
Mo        8.37829        4.15174        3.86714        1        0.707053        -0.158589        1.237649
Mo        10.75707        5.57653        4.14575        1        0.649309        0.229416        0.224954
Mo        8.60411        7.58819        3.89340        1        -0.141955        0.146155        -0.539532
Mo        10.83869        9.23641        3.90889        1        1.461061        -0.150623        1.941986
Mo        14.86046        0.05888        3.72745        1        -0.274048        0.418998        -0.296870
Mo        17.05574        1.75278        3.79592        1        1.513741        0.176852        0.477290
Mo        14.94418        3.55258        3.73319        1        -0.606535        -0.062307        0.996756
Mo        17.36185        5.40319        3.99088        1        -0.123656        -1.210287        -0.270098
Mo        15.07006        7.07875        3.83758        1        0.595964        0.484208        0.702931
Mo        17.18367        9.60292        4.14988        1        -0.000923        -0.509047        -1.222855
Te        0.63037        1.84700        4.87709        2        -0.280721        0.664058        0.484726
Te        4.08668        3.81980        5.88784        2        -0.243664        0.484345        -0.316357
Te        6.09148        0.09423        2.44375        2        -0.232103        -0.181259        0.460249
Te        2.76580        1.91651        2.03099        2        0.283987        0.317940        -0.613543
Te        0.75261        5.55126        5.36706        2        -0.006283        0.401480        -0.314938
Te        3.76938        7.71730        5.93309        2        0.308591        1.104860        1.283154
Te        5.80796        3.94159        2.53815        2        0.250385        0.174227        0.475266
Te        2.79216        5.97553        1.93554        2        0.255187        -0.606475        0.307368
Te        0.65930        9.61917        5.39385        2        -0.307941        -0.297138        -0.298006
Te        3.88589        0.03659        5.90886        2        -0.301249        -0.028526        0.273632
Te        5.99086        7.57484        2.46908        2        0.457717        0.534420        0.069188
Te        2.75436        9.45651        1.67448        2        0.034514        0.313981        1.630028
Te        7.08582        2.03860        5.00323        2        -0.141303        -0.344807        0.460684
Te        10.04461        3.90426        6.23146        2        -0.181774        -0.419488        -1.339531
Te        12.25102        0.26853        2.68732        2        -0.654058        -1.604309        -0.343685
Te        9.10634        2.08708        2.01901        2        -0.231798        -0.207559        0.471021
Te        7.07185        6.15663        5.54225        2        -0.758361        -1.169000        0.125252
Te        10.35423        7.45274        6.08210        2        -0.154394        0.548726        -0.924874
Te        12.22397        3.66872        2.57013        2        0.089050        0.404535        0.033676
Te        9.14906        5.71755        1.93791        2        0.163068        0.756217        -0.263714
Te        6.96890        9.60856        5.35657        2        0.130488        -0.170451        -0.134251
Te        10.35383        11.16989        5.87821        2        0.158560        -0.063617        0.023095
Te        12.52953        7.32401        2.83542        2        -0.595787        0.286102        -0.589766
Te        9.08901        9.49631        2.01837        2        -0.270208        -0.168297        -1.380637
Te        13.18841        1.79690        5.17992        2        0.895788        0.257584        0.656157
Te        16.69711        3.50931        5.86494        2        -0.195899        0.422125        -0.325879
Te        18.64118        11.16972        2.31968        2        0.225619        0.013742        0.545568
Te        15.40533        1.81895        1.68273        2        -0.011954        -0.352361        0.108492
Te        13.51656        5.52218        5.38569        2        -0.427718        -0.694432        0.234945
Te        16.94954        7.38774        5.76276        2        -0.456714        0.161859        0.647798
Te        18.93173        3.60321        2.42963        2        -0.263617        0.545560        0.337718
Te        15.61447        5.33167        1.95137        2        0.347686        0.384421        -1.483466
Te        13.61261        9.25942        5.11300        2        -0.262913        0.058527        -0.315716
Te        16.48153        0.08907        5.85105        2        0.031163        0.281587        1.105818
Te        18.53443        7.57471        2.56880        2        1.164719        -0.093327        0.295652
Te        15.58704        9.15774        2.09448        2        -0.381113        0.657669        -0.284118
