54
Lattice="18.429676749 0.000008540 -0.000615361 -0.000005198 10.852719811 0.000045896 0.042448411 0.000094922 30.000000000" Properties=species:S:1:pos:R:3:tags:I:1:forces:R:3 energy=-321.96682633 stress= -1.10785 -5.64423 -1.92701 0.85296 1.75616 -0.37740 pbc="T T T"
Mo        2.37280        0.00285        3.83365        1        -0.032359        0.272998        -0.104823
Mo        5.40960        1.88967        3.76824        1        0.662362        -1.141302        0.367139
Mo        2.25518        3.63869        3.73645        1        -0.008294        -0.532970        -0.037100
Mo        5.33410        5.39649        3.87221        1        -0.002871        0.286810        -0.042429
Mo        2.33911        7.18008        3.86712        1        -0.204703        0.260092        -0.273034
Mo        5.39613        9.04484        3.87363        1        -0.009112        -0.073701        0.623611
Mo        8.45289        0.02881        3.96277        1        -0.242233        0.325096        0.837635
Mo        11.57320        1.82827        4.03322        1        -0.513303        -0.781831        -0.173983
Mo        8.41889        3.55672        4.00546        1        0.344158        0.602921        0.363475
Mo        11.72276        5.50266        4.08940        1        -1.441788        -0.375891        -0.877997
Mo        8.57806        7.23224        4.03758        1        -0.291999        -0.696890        0.255443
Mo        11.52111        9.05254        4.08489        1        0.118569        -0.285880        -0.641184
Mo        14.57230        0.01612        3.98756        1        0.168177        0.198913        0.054479
Mo        17.72563        1.80492        3.86744        1        -1.375808        -0.548958        -0.191416
Mo        14.58453        3.61775        3.99429        1        0.587447        0.032262        -0.941265
Mo        17.65550        5.38464        3.91355        1        0.803228        0.396484        0.105899
Mo        14.62535        7.24102        4.00293        1        -0.449759        -0.084377        -0.206276
Mo        17.76549        9.16022        3.79124        1        -1.248061        -0.743928        0.399739
Te        1.27732        1.84278        5.62994        2        0.540336        -0.211442        -0.145846
Te        4.24878        3.46879        5.55964        2        0.249328        1.144628        0.214711
Te        1.24480        1.69095        2.01342        2        0.468124        0.536721        -0.065810
Te        4.46297        10.82215        2.05270        2        -0.147039        0.288686        -0.148438
Te        1.39387        5.36118        5.67816        2        -0.606341        0.153556        -0.366813
Te        4.29880        7.27176        5.70999        2        0.541005        -0.380356        -0.340963
Te        1.13172        5.52710        1.99929        2        0.840929        -0.485676        0.270113
Te        4.37020        3.59901        1.95586        2        -0.157447        0.552480        0.198442
Te        1.33819        9.09228        5.57484        2        0.173585        -0.234959        0.541925
Te        4.40457        0.10745        5.64817        2        -0.113029        -0.427252        -0.446861
Te        1.36929        8.97412        2.08726        2        0.145292        0.434627        -0.660448
Te        4.43939        7.27082        2.06146        2        -0.226695        -0.453822        0.138618
Te        7.29440        1.75374        5.83678        2        0.521326        0.302544        -0.971615
Te        10.53140        3.57514        5.80595        2        -0.138241        0.486251        -0.073858
Te        7.60190        1.89101        2.05776        2        -0.511043        -0.460237        0.385510
Te        10.45589        10.80994        2.15883        2        0.831591        0.377550        0.684648
Te        7.34027        5.40408        5.73167        2        0.163518        -0.094515        -0.038680
Te        10.56241        7.14102        5.91202        2        0.002009        0.622575        -0.144404
Te        7.55440        5.47263        2.19402        2        -0.324354        -0.294871        0.269940
Te        10.57792        3.76659        2.33102        2        0.013620        -0.645733        -0.134207
Te        7.36523        8.98382        5.74754        2        0.412080        0.450093        -0.034013
Te        10.50511        10.82624        5.81098        2        -0.275341        0.530734        -0.020591
Te        7.60592        9.00190        2.26730        2        -0.589084        0.019001        -0.764725
Te        10.64747        7.24096        2.27200        2        -0.069091        -0.017003        -0.109799
Te        13.61919        1.90020        5.85300        2        -0.099708        -0.578271        -0.316856
Te        16.68597        3.57435        5.69283        2        0.127539        -0.023106        0.170613
Te        13.51876        1.75395        2.20960        2        0.304329        0.523902        -0.168229
Te        16.57057        0.06551        1.99820        2        0.180006        -0.082355        0.848423
Te        13.66350        5.47834        5.80142        2        0.869634        -0.302769        0.860028
Te        16.80663        7.28530        5.63093        2        -0.222071        0.230864        0.284591
Te        13.65034        5.35695        2.09262        2        -0.031382        0.528305        0.834818
Te        16.74315        3.65030        2.06658        2        -0.932081        -0.479918        0.523733
Te        13.56518        9.06919        5.84858        2        0.420521        -0.094727        -0.270609
Te        16.60748        10.75976        5.70429        2        0.879120        0.751967        -0.205410
Te        13.61184        9.05703        2.23883        2        -0.543108        -0.160542        0.052008
Te        16.58912        7.21866        2.18210        2        0.417083        0.385768        -0.365837
