54
Lattice="19.173937585 0.000456147 -0.025753600 -0.000245476 10.515591813 0.000007040 0.013560576 0.000001770 30.000000000" Properties=species:S:1:pos:R:3:tags:I:1:forces:R:3 energy=-319.26193213 stress= -0.73237 -2.49809 -0.98517 1.26472 -0.07460 -0.12408 pbc="T T T"
Mo        2.08985        0.12410        3.75309        1        0.693723        -1.866435        -0.301377
Mo        4.49220        1.69069        3.75940        1        0.120933        0.036348        1.816048
Mo        2.14166        3.25639        3.68656        1        0.230293        1.083138        -0.084809
Mo        4.39832        5.42371        4.01521        1        0.503776        0.204005        1.479831
Mo        2.09939        6.91427        3.96244        1        -1.005337        0.527230        -2.288362
Mo        4.39766        8.78053        3.94098        1        -0.114294        0.317475        0.785317
Mo        8.60760        10.39850        3.70284        1        -0.294286        0.480463        0.781002
Mo        10.83886        1.85793        3.99070        1        -0.462067        -0.312412        0.427755
Mo        8.43366        3.71749        3.96036        1        1.715762        -0.424675        -0.075605
Mo        10.83563        5.15575        4.06754        1        -0.314926        0.997789        0.054795
Mo        8.64882        7.01331        3.83769        1        -0.292474        0.975325        0.011835
Mo        10.92033        8.65078        3.97055        1        -0.393260        -0.101493        -0.204454
Mo        14.84151        0.00988        3.79234        1        0.426128        0.362920        0.564937
Mo        17.17436        1.75410        3.95094        1        -0.257481        -0.314459        0.247153
Mo        14.97654        3.58935        3.81780        1        0.357861        -0.830520        0.633308
Mo        17.37931        5.19948        3.92347        1        -0.590535        -0.459538        1.297478
Mo        15.06457        6.90638        3.91929        1        -0.981746        0.725019        -0.894765
Mo        17.28345        8.82158        4.14589        1        -0.603193        0.271819        -0.599798
Te        0.46483        1.58591        5.29393        2        0.224582        0.986998        0.632524
Te        3.77094        3.41592        5.84968        2        0.272882        0.541460        -0.451132
Te        6.03321        10.34347        2.38392        2        0.443617        0.966299        -0.495615
Te        2.80806        1.60091        1.68316        2        -0.020203        0.259640        -0.594026
Te        0.71296        5.00796        5.43511        2        -0.464130        0.330270        -0.266024
Te        3.69939        7.20758        5.94751        2        0.911475        -0.501551        1.321223
Te        5.98760        3.70124        2.71070        2        0.595029        -0.532258        -1.445137
Te        2.88789        5.19960        1.85270        2        -0.687590        0.055778        0.219760
Te        0.52356        8.84143        5.52357        2        0.668177        -0.270020        -0.392170
Te        3.81380        0.19195        5.85436        2        0.120828        -0.860390        -0.134916
Te        6.13921        7.21237        2.48265        2        -0.468338        -1.045422        -0.129516
Te        2.58545        8.63529        1.82261        2        0.421488        0.244673        1.011466
Te        7.02184        1.72963        5.38088        2        -0.424338        -0.022621        -0.656356
Te        10.30398        3.48051        6.14489        2        -0.504403        -0.101882        -1.086787
Te        12.37368        0.02383        2.34283        2        0.037079        0.079069        0.486934
Te        9.06644        1.93364        1.97373        2        0.076957        -0.213598        -0.347951
Te        7.02184        5.42331        5.44631        2        -0.933514        0.136598        0.378581
Te        10.34115        6.86392        6.03458        2        -0.374020        0.915038        -0.357438
Te        12.55907        3.73410        2.62434        2        -0.508524        -1.365675        -1.367581
Te        9.11368        5.38062        1.82876        2        0.386576        -0.905070        0.414439
Te        7.12174        8.78191        5.39555        2        -0.762168        0.169192        -0.058124
Te        10.17845        10.51220        5.88162        2        0.152280        -0.279315        -0.271892
Te        12.56026        6.89949        2.40462        2        -0.160352        0.410574        0.613238
Te        9.22580        8.77239        1.74602        2        0.435135        -0.393614        0.287174
Te        13.19757        1.67495        5.39874        2        0.856867        0.307335        -0.324406
Te        16.80464        3.53323        5.90161        2        -0.653206        -0.239189        0.349212
Te        18.84473        0.07109        2.47494        2        -0.656624        -0.706338        -0.510021
Te        15.48113        1.77735        1.79437        2        -0.064937        0.027998        0.599019
Te        13.32105        5.19929        5.45700        2        0.639768        0.147357        0.185953
Te        16.76378        7.00525        5.99234        2        -0.028337        -0.710801        0.306203
Te        18.83556        3.35446        2.22491        2        -0.176521        0.315642        0.624401
Te        15.65288        5.26291        1.87163        2        -0.054966        0.231452        -0.305560
Te        13.24422        8.69191        5.45466        2        0.838963        0.076577        -0.409509
Te        16.42603        0.04123        6.02427        2        0.136800        0.241220        -0.542724
Te        18.74802        6.96414        2.56646        2        1.328741        0.778633        -0.704248
Te        15.71605        8.81047        1.97545        2        -0.334874        -0.738545        -0.189857
