54
Lattice="18.429676749 0.000008540 -0.000615361 -0.000005198 11.278316666 0.000045896 0.042448411 0.000094922 30.000000000" Properties=species:S:1:pos:R:3:tags:I:1:forces:R:3 energy=-313.40732758 stress= -2.05898 -10.45251 -2.27339 1.40825 -0.46769 -0.31523 pbc="T T T"
Mo        2.32818        0.11819        3.75020        1        -0.071899        0.624124        0.165118
Mo        5.36493        2.41675        3.95793        1        1.039235        -0.546360        -0.076689
Mo        2.06468        4.08566        4.10948        1        1.693641        -0.507867        0.161233
Mo        5.39035        5.72409        3.94890        1        1.098743        1.495075        -0.990598
Mo        2.32847        7.51750        3.80790        1        0.190268        0.781521        0.677981
Mo        5.37686        9.70401        3.70727        1        0.304725        -0.727277        1.155689
Mo        8.39048        11.22051        3.79738        1        0.998821        -0.142613        0.270713
Mo        11.65177        1.89841        3.77313        1        0.496449        -1.391360        1.123551
Mo        8.58391        3.90578        4.04795        1        0.112739        -1.169003        0.264584
Mo        11.67554        5.40119        4.08522        1        -0.141764        1.190163        0.442912
Mo        8.33363        7.35062        3.84788        1        -0.449168        -0.608657        -0.044482
Mo        11.60991        9.18227        3.87628        1        -2.180986        -1.307295        -0.079134
Mo        14.52836        11.22130        3.85101        1        -0.319419        -0.439608        -0.656690
Mo        17.21414        1.88964        4.13672        1        2.237648        1.420235        0.166093
Mo        14.71269        3.69560        4.15035        1        -0.929985        -0.565573        -0.630151
Mo        17.68084        5.32464        4.13235        1        0.287826        1.419500        -0.087230
Mo        14.70923        7.24176        3.86319        1        -1.734576        1.410856        1.428490
Mo        17.79788        9.04298        3.72234        1        -0.454259        1.421096        0.190649
Te        1.04159        2.14458        5.76316        2        0.275706        -0.845878        -0.746439
Te        4.37489        4.24638        5.83657        2        -1.095243        -1.435117        0.114497
Te        0.86391        2.03049        2.21766        2        1.425304        0.134963        1.145188
Te        4.72909        0.63059        2.03153        2        -1.825559        -1.405805        0.398912
Te        1.46954        6.08551        6.02652        2        -0.779137        -1.123803        -1.358497
Te        4.52143        7.71284        5.66400        2        -0.758776        0.546424        -1.087991
Te        1.28249        5.64906        2.12521        2        -0.714154        0.115149        0.337608
Te        4.18548        4.10827        2.26968        2        -0.668508        -0.604641        -0.622802
Te        1.25458        9.52193        5.54456        2        1.087809        -0.058144        -0.415574
Te        4.41404        0.62736        5.62042        2        -0.821632        -1.866632        -0.324613
Te        1.45952        9.34109        1.83655        2        -0.186988        0.346210        1.247985
Te        4.42315        7.54252        2.00636        2        0.226499        0.541314        0.886153
Te        7.55362        1.81210        5.56084        2        -0.067884        0.825910        0.647474
Te        10.86575        3.30987        5.84716        2        -1.398072        1.795394        -0.117479
Te        7.51945        2.11535        2.17408        2        0.295828        -0.136831        0.475902
Te        10.62121        11.26379        2.14691        2        -0.350050        -0.452759        -0.477169
Te        7.37774        5.66345        5.77346        2        0.437176        -0.301956        0.042457
Te        10.27134        7.31669        5.66456        2        1.828064        -0.016957        -0.042298
Te        7.50323        5.41062        2.00553        2        -0.609701        0.869343        0.978520
Te        10.59799        3.87711        2.31577        2        -0.090228        -0.910422        -1.699791
Te        7.47496        9.16912        5.61026        2        -0.784071        1.710855        -0.331714
Te        10.59786        10.94471        5.41552        2        -0.745634        2.034280        1.345655
Te        7.57245        9.29096        2.15211        2        -0.903860        0.428756        -1.200208
Te        10.34606        7.29395        2.11912        2        1.705870        -0.017522        0.388623
Te        13.59975        1.57640        5.78824        2        0.122472        0.891901        -0.746149
Te        16.55370        3.76510        6.13571        2        0.356083        -0.340863        -0.519148
Te        13.73848        1.96133        2.02372        2        -0.101046        -0.427885        0.846843
Te        16.88837        0.01548        2.32181        2        -1.451037        -1.345858        -1.329756
Te        13.74196        5.50156        5.87319        2        -0.519517        0.689101        -0.306299
Te        16.71020        7.47429        5.71127        2        0.139463        -0.647517        -0.335416
Te        13.70845        5.37663        2.17996        2        -0.601746        0.344011        0.554317
Te        16.54228        3.69150        2.22962        2        0.516987        0.106607        0.072526
Te        13.63235        9.29435        5.63952        2        0.131578        -0.627708        -0.136288
Te        16.53377        10.98020        5.50360        2        0.830318        -0.563026        1.263500
Te        13.46551        9.32537        2.20327        2        2.248061        -0.761279        -1.787159
Te        16.69574        7.09287        2.19524        2        0.644012        0.168230        -0.676969
