54
Lattice="20.272644424 0.000008540 -0.000615361 -0.000005198 10.639921383 0.000045896 0.042448411 0.000094922 30.000000000" Properties=species:S:1:pos:R:3:tags:I:1:forces:R:3 energy=-318.44490780 stress= -20.67363 -5.61580 -2.50825 -0.21527 0.55722 0.01146 pbc="T T T"
Mo        2.55894        0.02845        3.89527        1        0.545251        0.011641        0.548032
Mo        5.93009        1.71980        3.83640        1        0.055738        0.351821        1.142318
Mo        2.53531        3.53916        3.96130        1        0.267364        -0.042097        0.109333
Mo        5.99007        5.35025        3.99290        1        0.143634        0.510552        -0.470065
Mo        2.55761        7.13110        4.02449        1        -0.019857        0.020049        -0.392169
Mo        5.87475        8.86011        4.03065        1        0.236212        -0.367445        -0.162366
Mo        9.45239        10.55602        3.89742        1        -0.589432        -0.280699        -0.026720
Mo        12.74522        1.64583        3.89523        1        0.790124        0.207139        -0.823418
Mo        9.35922        3.42934        3.76952        1        -0.135890        0.346720        0.175962
Mo        12.71362        5.29101        3.85470        1        0.634293        -0.385972        -0.242675
Mo        9.34050        6.97202        3.82110        1        -0.079091        -0.107817        0.219790
Mo        12.71709        8.72144        3.88414        1        0.310679        -0.347338        -0.305212
Mo        16.07245        0.03340        3.98003        1        -0.144215        0.528245        -0.981830
Mo        19.46908        1.85961        3.97357        1        0.433389        0.712826        -0.010653
Mo        16.21107        3.65563        3.98666        1        -0.705740        -0.019462        0.158290
Mo        19.45061        5.37362        3.99868        1        0.585327        -0.121461        -0.328257
Mo        16.07463        7.22157        3.95351        1        -0.037815        0.187957        0.443971
Mo        19.57187        8.99561        4.00180        1        -0.535639        -0.195700        -0.165872
Te        1.40165        1.77038        5.80455        2        0.094006        0.076485        -1.024385
Te        4.80051        3.56994        5.62751        2        0.031973        -0.438846        0.151082
Te        1.49367        1.78519        2.13033        2        -0.572805        0.206344        0.472619
Te        4.87012        10.58093        2.14537        2        -0.679204        -0.036133        0.091629
Te        1.36057        5.30767        5.73308        2        0.209387        0.144800        -0.096497
Te        4.68630        7.09204        5.83296        2        0.599479        -0.079668        -0.646388
Te        1.46345        5.35938        2.24021        2        -0.414552        -0.006029        0.141549
Te        4.81036        3.64560        2.19730        2        -0.194134        -0.353520        0.173535
Te        1.49481        8.96778        5.76089        2        -0.312786        -0.175693        -0.217131
Te        4.74166        0.02388        5.72800        2        0.128810        0.262922        -0.481582
Te        1.42586        8.88238        2.16371        2        0.032585        -0.020999        0.429274
Te        4.73849        7.12251        2.21007        2        0.172250        -0.123042        0.710180
Te        8.22146        1.72683        5.57061        2        -0.124344        -0.198422        0.030639
Te        11.60911        3.47831        5.49762        2        -0.454925        -0.255946        0.670206
Te        8.09435        1.57397        2.14315        2        0.591082        0.414582        -0.297258
Te        11.63389        10.44945        2.12596        2        -0.210864        0.435300        -0.092313
Te        8.34547        5.21982        5.62643        2        -0.579735        -0.256264        -0.216494
Te        11.43813        6.93544        5.58539        2        0.547946        0.376873        0.229777
Te        8.19991        5.26595        2.03962        2        -0.374845        -0.323286        0.478265
Te        11.61659        3.39206        2.10759        2        0.031994        0.167501        -0.056195
Te        8.24086        8.74715        5.64202        2        -0.131423        0.278680        -0.101550
Te        11.67826        10.48784        5.56748        2        -0.581554        0.240896        0.973434
Te        8.10940        8.78581        2.25360        2        -0.093243        0.218666        -0.301473
Te        11.47848        6.90998        2.06835        2        0.459427        0.556961        0.098246
Te        14.96346        1.79633        5.70455        2        -0.160541        0.507123        -0.260118
Te        18.37670        3.64710        5.77539        2        -0.240835        -0.275374        -0.107355
Te        15.01228        1.86892        2.14072        2        0.054430        -0.090408        0.821877
Te        18.27315        0.16256        2.27369        2        0.267612        -0.668033        -0.296347
Te        14.85118        5.46141        5.80394        2        0.364294        -0.317221        -1.225255
Te        18.26428        7.15516        5.65646        2        0.247320        0.449272        0.433421
Te        15.10751        5.44578        2.18805        2        -0.587958        -0.438965        0.212314
Te        18.34711        3.68113        2.18545        2        0.091749        -0.335080        0.242980
Te        14.93986        9.01112        5.75991        2        -0.341425        -0.847765        -0.378641
Te        18.24015        0.11062        5.66304        2        0.464414        -0.198945        0.498238
Te        14.90734        8.94362        2.13913        2        0.266594        -0.165481        0.417264
Te        18.38748        7.19717        2.29673        2        -0.281851        0.252733        -0.331226
