54
Lattice="19.904050889 0.000008540 -0.000615361 -0.000005198 10.639921383 0.000045896 0.042448411 0.000094922 30.000000000" Properties=species:S:1:pos:R:3:tags:I:1:forces:R:3 energy=-316.24787060 stress= -16.48150 -3.51584 -2.96501 -3.18642 1.70450 -0.45193 pbc="T T T"
Mo        2.75910        10.55299        4.03060        1        -1.003072        0.113543        0.415163
Mo        5.79970        1.71486        3.86851        1        0.566735        0.954766        0.094869
Mo        2.35198        3.45798        3.72857        1        1.054955        1.002043        1.574190
Mo        5.80536        5.35361        3.82018        1        0.704989        -0.968287        -0.375350
Mo        2.42137        6.99277        3.93575        1        -0.438523        -0.208179        -0.291777
Mo        5.92148        8.95773        4.19944        1        -0.756322        0.119055        -0.758037
Mo        9.21789        0.02650        3.94969        1        0.173370        -1.745442        0.041609
Mo        12.61243        1.86199        3.81171        1        -0.477626        -1.109886        0.064337
Mo        9.17919        3.55585        3.73835        1        0.633444        -0.767078        0.150063
Mo        12.24939        5.22385        3.79541        1        1.974724        1.244007        1.229669
Mo        9.25625        7.16908        3.91062        1        -0.948329        -0.021848        0.459214
Mo        12.55341        8.90723        4.08189        1        0.411195        -0.283043        -0.889051
Mo        16.02400        10.58950        4.09442        1        -0.456088        0.095535        -0.689477
Mo        19.13887        1.70267        3.99020        1        0.523502        -0.557345        0.055005
Mo        15.73948        3.76190        3.81307        1        0.405772        -1.176039        0.502319
Mo        18.99380        5.37625        3.93396        1        0.516325        0.432907        -0.087071
Mo        15.73640        7.04931        4.04328        1        -0.779142        0.987308        -0.151563
Mo        19.12795        8.95758        4.05910        1        -0.019621        -1.014861        -0.544692
Te        1.47535        1.78740        5.69049        2        -0.220189        -0.316846        -0.175743
Te        4.43216        3.60644        5.39030        2        1.176460        -0.191821        0.561023
Te        1.59988        1.57596        2.19022        2        -1.277592        -0.889568        -0.775712
Te        4.70909        10.58667        2.20502        2        0.820262        -0.460886        0.095682
Te        1.14332        5.24511        5.69607        2        0.772978        -0.088437        -0.483177
Te        4.57857        6.98228        5.61186        2        0.465182        0.443971        0.840590
Te        1.26508        5.10545        2.06369        2        -0.514457        1.714677        -0.117761
Te        4.84759        3.58149        1.84483        2        -0.538454        -0.281162        1.479917
Te        1.39145        8.86598        5.76152        2        0.472957        -0.417048        -0.208811
Te        4.81581        0.27510        6.00117        2        0.084677        -0.991321        -1.177689
Te        1.44580        8.80213        2.18221        2        -0.220514        0.150499        0.717655
Te        4.70590        7.16198        2.29011        2        -0.253561        0.748443        -0.389004
Te        8.20438        1.79569        5.55675        2        -1.220694        0.750952        0.589393
Te        11.34449        3.48726        5.60540        2        -0.429949        0.125102        -0.216190
Te        8.04927        1.63903        2.08391        2        -0.215513        0.348405        0.304248
Te        11.31429        10.41603        2.19838        2        0.681404        1.284470        0.226947
Te        8.06288        5.30082        5.44547        2        -0.316103        0.126488        0.711524
Te        11.31768        7.26823        5.76387        2        -0.066427        -1.258435        -0.303339
Te        8.12444        5.31649        1.96520        2        -0.389847        0.564232        0.719619
Te        11.32224        3.53733        1.98578        2        0.150805        -0.769818        -0.210931
Te        8.07063        8.94086        6.02478        2        0.357522        -0.143003        -1.726686
Te        11.53730        0.13330        5.80143        2        -0.299113        0.133479        -1.060179
Te        7.93759        8.79725        2.25788        2        0.198168        0.782899        0.366354
Te        11.32579        7.04030        2.16292        2        0.199230        1.048204        -0.220509
Te        14.83668        1.87524        5.58869        2        -0.697737        0.218359        0.260418
Te        17.82327        3.55250        5.50767        2        0.416794        0.217670        1.455165
Te        15.05970        1.73561        2.20309        2        -1.255798        -0.040842        -0.334296
Te        18.03225        10.56381        2.25415        2        0.295835        0.511415        -0.506887
Te        14.39237        5.33375        5.67131        2        0.145551        -0.204889        -0.437382
Te        17.85321        7.16419        5.78301        2        0.573274        -0.449501        -0.289310
Te        14.79789        5.45214        1.95391        2        -1.069125        -0.081501        0.704212
Te        18.07025        3.51112        2.28540        2        -0.520017        0.098268        -1.310682
Te        14.77749        8.93918        5.90906        2        -0.350386        -0.448151        -0.701288
Te        18.08808        10.62905        5.89727        2        0.175083        0.504939        -0.021940
Te        14.74868        8.86832        2.26511        2        -0.289847        0.263512        0.705152
Te        17.77095        7.18644        2.25572        2        1.131845        -0.088584        0.143911
