54
Lattice="20.324373841 0.000456147 -0.025753600 -0.000245476 10.927967962 0.000007040 0.013560576 0.000001770 30.000000000" Properties=species:S:1:pos:R:3:tags:I:1:forces:R:3 energy=-316.59596064 stress= -13.44096 -9.86378 0.13626 -1.27103 0.74168 0.23933 pbc="T T T"
Mo        2.29404        10.87752        3.70417        1        -0.015006        0.267241        -0.508794
Mo        4.58214        1.64694        3.76618        1        1.044557        0.332571        1.729118
Mo        2.28890        3.30104        3.72103        1        0.431579        0.707761        -1.259455
Mo        4.76299        5.39439        4.02048        1        -0.404800        -0.433960        -1.551350
Mo        2.54778        6.94019        3.77415        1        -1.285114        -0.084411        -0.604454
Mo        4.81130        8.86303        3.90099        1        -0.002981        0.666729        0.350367
Mo        9.08573        0.17643        3.82587        1        -0.531972        -0.559713        0.079922
Mo        11.34927        2.11192        4.11695        1        1.113534        0.728493        0.246967
Mo        8.98474        3.71409        3.77588        1        -0.240839        -0.697176        0.143245
Mo        11.49698        5.52577        4.04491        1        -0.719482        -0.164175        -0.116303
Mo        9.00633        7.18453        3.90456        1        0.101429        -0.477946        -0.609942
Mo        11.49213        8.80161        4.04593        1        -0.215219        1.047982        -0.354209
Mo        15.81077        0.60091        4.01305        1        0.142876        -0.199119        -0.120042
Mo        18.31610        2.12282        4.00718        1        -0.037153        -0.816507        0.312752
Mo        15.81772        3.88309        3.80912        1        0.078160        0.174072        0.613424
Mo        18.37428        5.46238        4.17164        1        -0.604221        0.303710        -0.425600
Mo        15.84729        7.27585        3.84380        1        -0.151768        -0.307843        0.771112
Mo        18.28603        9.13673        3.98298        1        0.061029        -0.668341        0.373809
Te        0.65470        1.70818        5.15959        2        -0.227063        -0.321937        0.117358
Te        3.98298        3.53820        5.78824        2        0.199120        -0.703734        0.244333
Te        6.39434        10.89131        2.39718        2        0.115453        -0.538629        0.254254
Te        3.09193        1.62441        1.59688        2        -0.947951        -0.097900        0.467203
Te        0.81776        5.12877        5.33014        2        0.191499        0.763502        0.125948
Te        4.06359        7.24981        5.90747        2        0.403629        -0.368438        0.479373
Te        6.28226        3.39141        2.37101        2        0.194589        0.822414        0.145291
Te        3.08248        5.19415        1.73715        2        0.109617        0.014124        1.062842
Te        0.93249        8.82995        5.17979        2        -0.206424        0.516065        -0.277463
Te        4.03260        10.77651        5.78868        2        0.066596        0.111799        -0.554985
Te        6.43701        7.08649        2.60524        2        0.330187        0.173382        -0.417219
Te        3.09476        8.92133        1.83916        2        -0.292470        -0.109413        0.506773
Te        7.24022        1.87485        5.08107        2        0.033530        -0.582606        0.304014
Te        10.50644        3.87329        6.00364        2        0.424296        -0.366188        -0.177824
Te        13.10127        0.12148        2.94377        2        -0.342089        0.129897        0.086585
Te        9.85246        1.83018        1.93876        2        -0.279796        0.311698        -0.523467
Te        7.23519        5.31985        5.29339        2        0.559154        0.200782        0.336720
Te        10.68650        7.28426        5.97651        2        -0.010487        -0.227070        0.709185
Te        13.11014        3.70854        2.56796        2        -0.105772        0.227196        -0.141553
Te        9.70562        5.37062        1.90891        2        0.336452        0.820491        -0.107334
Te        7.38296        8.99983        5.29763        2        -0.039264        0.347807        -0.217131
Te        10.88894        0.07949        5.80891        2        -0.196373        -0.568132        0.017177
Te        13.14042        7.34494        2.57503        2        0.208700        -0.512748        -0.315144
Te        9.69321        9.02577        2.01160        2        0.131247        0.261668        0.483932
Te        14.14882        2.20890        5.47140        2        0.087049        -0.187038        -0.294586
Te        17.51642        3.71381        5.94102        2        -0.227166        0.024571        0.919260
Te        19.79043        0.02008        2.60783        2        0.535540        0.180924        0.028402
Te        16.63806        2.14665        1.95634        2        -0.371619        -0.279986        -0.407279
Te        14.08266        5.65238        5.33724        2        0.435750        -0.223648        -0.012134
Te        17.55785        7.44512        6.00241        2        -0.022258        -0.567982        -0.403575
Te        19.99471        3.71275        2.55324        2        -0.183058        -0.172616        -0.416181
Te        16.76300        5.69482        1.97365        2        -0.078788        -0.443979        -0.436509
Te        14.32446        9.20768        5.09678        2        -0.230682        0.543345        0.157257
Te        17.71480        0.11249        5.87050        2        -0.123186        0.291811        -0.195871
Te        19.98389        7.16236        2.88675        2        0.702735        0.714326        -0.486432
Te        16.33932        9.43736        2.20054        2        0.071139        -0.000321        -0.114260
