54
Lattice="18.798270284 0.000008540 -0.000615361 -0.000005198 10.852719811 0.000045896 0.042448411 0.000094922 30.000000000" Properties=species:S:1:pos:R:3:tags:I:1:forces:R:3 energy=-318.72797140 stress= -5.64864 -4.89116 -1.81475 0.98360 -2.81179 -0.49181 pbc="T T T"
Mo        2.24853        10.77738        4.11732        1        0.633515        -0.347599        -0.681364
Mo        5.47453        1.94496        3.80762        1        -0.569481        -1.227814        0.569792
Mo        2.23160        3.48547        3.77498        1        1.373206        -0.845187        1.463917
Mo        5.37100        5.42919        3.83502        1        0.774964        -0.899837        0.019373
Mo        2.35936        7.26636        4.06136        1        1.082477        -0.995166        -0.073104
Mo        5.42369        9.02004        3.92147        1        -0.057557        -0.192549        -0.096007
Mo        8.82731        0.18623        4.09712        1        -0.548968        -1.874204        -2.103115
Mo        11.67575        1.88893        3.81581        1        0.516761        -0.982384        0.518073
Mo        8.73184        3.86166        3.81264        1        -0.242986        -0.574589        -0.335690
Mo        11.88418        5.41724        3.76259        1        0.236443        1.710040        2.063784
Mo        8.60413        7.22622        3.76869        1        -1.149427        0.419057        0.464516
Mo        11.79808        9.09196        3.98188        1        0.570803        -0.151015        -0.198248
Mo        15.03224        10.68584        4.04414        1        0.006794        1.020842        -0.907861
Mo        18.04310        1.86117        3.84737        1        -1.299253        -0.335239        1.509893
Mo        15.01480        3.72416        3.92115        1        0.203639        -0.714640        -0.401934
Mo        17.95068        5.24301        4.08656        1        1.142385        1.894777        -0.763829
Mo        14.91084        7.25335        3.87855        1        -0.054107        -0.061891        1.916568
Mo        18.15536        9.01036        4.11181        1        -0.133700        -0.311354        0.062241
Te        1.16127        1.77715        5.76038        2        0.716123        0.233212        -0.229430
Te        4.29356        3.63973        5.59772        2        0.424835        -0.319780        -0.214315
Te        1.21677        1.60081        2.13114        2        0.722046        -0.051841        -0.387484
Te        4.30880        10.69474        2.15072        2        -0.126617        1.067980        0.548433
Te        1.48483        5.24215        5.73781        2        -1.265875        0.546545        -0.214735
Te        4.62831        7.16577        5.81113        2        -0.770534        0.273832        -0.663196
Te        1.29279        5.33846        2.22274        2        -0.688531        1.212111        -0.051775
Te        4.28514        3.44259        1.91394        2        0.268645        0.846341        0.585067
Te        1.42910        8.90316        6.02931        2        -0.373467        0.484371        -0.810011
Te        4.61994        0.10629        5.70380        2        -0.804987        -0.131136        -0.307276
Te        1.33391        8.93141        2.25719        2        -0.231867        0.356811        0.092630
Te        4.39800        7.16255        2.08667        2        -0.605247        0.673293        0.395639
Te        7.66357        2.01746        5.53927        2        -0.417353        0.433984        1.376461
Te        10.83366        3.67553        5.60071        2        -0.265493        0.372459        0.254527
Te        7.68586        1.86274        2.32857        2        0.264722        0.442683        -1.795013
Te        10.71244        10.77186        2.09243        2        0.150746        0.684573        0.491244
Te        7.56925        5.29820        5.62366        2        -0.382282        1.723212        0.068974
Te        10.62928        7.30756        5.66359        2        0.404944        -0.882982        -0.558624
Te        7.39796        5.56926        1.92992        2        0.615075        -0.421881        0.645893
Te        10.75550        3.86340        2.07682        2        -0.047637        -1.561276        -1.608040
Te        7.60577        9.07515        5.50840        2        0.270596        -0.114565        1.051930
Te        10.89149        10.80310        5.80858        2        -0.085547        1.086261        0.104140
Te        7.41563        9.35262        2.10539        2        1.162786        -0.771211        0.674199
Te        10.69039        7.32009        2.13242        2        0.660906        -0.034999        -0.272037
Te        13.96530        1.72811        5.60020        2        -0.864294        0.852008        -0.065924
Te        16.92896        3.54454        5.83295        2        0.069246        -0.145830        -0.102428
Te        13.84913        1.84195        2.17913        2        0.685988        -0.280257        0.374761
Te        17.13225        10.69252        2.26455        2        -0.587825        0.349030        -0.231312
Te        13.86738        5.46165        5.69794        2        0.002602        -0.154707        -0.344884
Te        16.98343        7.27386        5.83110        2        0.118590        -0.851164        -0.544322
Te        14.07180        5.51780        2.08081        2        -0.900018        -0.673450        -0.530194
Te        17.15687        3.71964        2.03429        2        -0.994031        -0.703468        0.433292
Te        14.12398        8.93497        5.86433        2        -1.430331        0.236067        -0.384116
Te        17.04123        0.09538        5.86585        2        0.401860        -0.430846        -0.775705
Te        13.88671        9.08517        2.23506        2        -0.204666        -0.029897        -0.758849
Te        16.90924        7.18030        2.17386        2        1.621389        0.169771        0.688963
