54
Lattice="19.535457354 0.000008540 -0.000615361 -0.000005198 10.639921383 0.000045896 0.042448411 0.000094922 30.000000000" Properties=species:S:1:pos:R:3:tags:I:1:forces:R:3 energy=-317.97999637 stress= -10.00476 -0.40587 5.55566 1.98876 2.03923 0.77490 pbc="T T T"
Mo        2.50711        10.53976        3.98726        1        0.427649        0.081191        -0.344491
Mo        5.70888        1.51156        4.04338        1        0.484443        0.282253        0.492223
Mo        2.50147        3.35719        4.01712        1        0.381175        0.619439        -1.511646
Mo        5.72050        5.09233        3.98481        1        0.673141        0.352625        -0.389113
Mo        2.53389        6.95939        3.90087        1        -0.075850        0.038201        -0.273068
Mo        5.54018        8.73472        4.13491        1        0.774759        0.121951        0.974109
Mo        8.99028        0.00527        3.97163        1        0.788640        1.171621        1.628372
Mo        12.12399        1.84406        3.85715        1        -0.449338        0.268220        0.977663
Mo        8.81912        3.56366        3.99522        1        0.695095        -0.018538        -0.526098
Mo        12.40336        5.69648        3.84161        1        -0.007111        -1.071131        0.416866
Mo        9.08560        6.86961        3.76677        1        -0.338089        1.186130        0.935914
Mo        12.36439        9.14913        3.89527        1        -0.911906        -0.313337        -0.379961
Mo        15.28378        0.08900        3.92522        1        0.997640        1.884832        0.844457
Mo        18.84078        1.79093        3.90876        1        -0.412526        -0.006433        -0.983346
Mo        15.48239        3.63066        3.90662        1        -0.331276        0.202225        0.339372
Mo        18.81412        5.22953        3.79249        1        -0.470262        -0.537380        0.262610
Mo        15.61971        7.21131        3.73539        1        0.696873        0.836316        0.937624
Mo        18.97057        8.82923        3.97893        1        -0.698565        1.377936        -0.767987
Te        1.32685        1.56444        5.64574        2        0.059884        0.778751        1.340931
Te        4.55843        3.16473        5.67653        2        0.171061        1.534738        1.358510
Te        1.62012        1.79138        2.12740        2        -1.248079        -1.168628        -0.197400
Te        4.62392        10.52964        2.33909        2        -0.223576        -0.771446        -1.351629
Te        1.34688        5.19943        5.52469        2        -0.201515        -0.002244        1.451646
Te        4.52251        6.66514        5.77677        2        0.033789        1.137294        0.369036
Te        1.42482        5.16140        2.09841        2        0.410216        0.088460        0.138786
Te        4.74512        3.34927        2.21152        2        -0.674425        -0.209104        0.076262
Te        1.45591        8.74767        5.69074        2        0.307226        -0.394896        0.871393
Te        4.51340        10.51888        5.94054        2        0.184037        -0.435986        -0.253675
Te        1.52444        8.82338        2.16892        2        -0.167736        -0.138404        -0.319522
Te        4.76359        7.03780        2.31474        2        -0.615753        -0.866975        -1.100641
Te        7.82800        1.80566        5.84471        2        0.354521        -0.681419        -0.402887
Te        11.16110        3.83371        5.50273        2        -0.280102        -0.081616        0.488894
Te        7.74081        1.68679        2.30481        2        0.706308        0.286924        -0.762109
Te        11.02651        0.12363        2.04995        2        0.031830        -0.090265        0.482445
Te        7.77898        5.30621        5.75037        2        0.613808        0.018384        -0.177944
Te        11.23236        7.39850        5.58700        2        -0.272061        -0.650780        0.169398
Te        7.88280        5.15913        2.01102        2        -0.358630        0.281444        0.544648
Te        11.18650        3.78795        2.25861        2        -0.893647        -0.051650        -0.518283
Te        7.93504        8.69318        5.61832        2        -0.078228        -0.048805        0.191169
Te        11.10311        0.14133        5.88372        2        0.203478        0.050949        -1.302530
Te        7.71850        8.99159        2.42910        2        0.021000        -1.823113        -1.460862
Te        11.33827        7.27314        2.04928        2        -0.673076        0.736602        -0.214721
Te        14.14110        2.05554        5.66668        2        0.715186        -0.847051        0.111444
Te        17.70356        3.44657        5.75276        2        -0.222835        0.807825        -0.826847
Te        14.12538        1.96085        2.10292        2        1.139397        -0.384026        0.109505
Te        17.47675        10.61857        2.32552        2        1.146035        0.157867        -0.513852
Te        14.46653        5.62165        5.59077        2        0.390894        -0.739679        0.342878
Te        17.78281        7.03503        5.46113        2        -0.557866        -0.091599        1.499926
Te        14.53960        5.45428        2.09292        2        -0.233141        -0.256267        -0.682257
Te        17.54858        3.45677        2.15450        2        0.573655        0.150440        -0.483317
Te        14.47092        8.95324        5.66032        2        -0.074031        -0.299771        0.292235
Te        17.66008        0.11572        5.62377        2        -0.472875        -0.962395        0.245695
Te        14.51939        9.07711        2.11017        2        -0.917663        -0.771324        -1.164570
Te        18.01076        7.22256        2.12843        2        -1.078523        -0.724488        -0.973901
