54
Lattice="18.429676749 0.000008540 -0.000615361 -0.000005198 12.767905659 0.000045896 0.042448411 0.000094922 30.000000000" Properties=species:S:1:pos:R:3:tags:I:1:forces:R:3 energy=-306.33671585 stress= -14.09383 -26.49394 -1.00387 0.43527 -3.09270 -0.37479 pbc="T T T"
Mo        2.24422        0.13814        4.10325        1        -0.947513        -1.102113        -0.478272
Mo        5.30771        2.03832        3.83371        1        1.028717        0.114562        0.479614
Mo        2.28778        4.23855        3.91721        1        0.249287        -1.136797        -0.114159
Mo        5.33051        6.33235        3.95195        1        0.814827        0.590081        0.383905
Mo        2.22725        8.23808        3.81643        1        0.831925        1.137144        -0.196330
Mo        5.45169        11.02302        3.82987        1        -0.794473        -1.289876        0.985434
Mo        8.35963        0.21442        3.66611        1        0.796257        -0.376232        1.487726
Mo        11.63817        2.32390        3.94120        1        -0.114252        -0.473447        -0.624802
Mo        8.42167        4.20808        3.82670        1        -0.542578        0.186761        0.954509
Mo        11.29451        6.43027        4.03010        1        0.625330        -0.238219        -0.788914
Mo        8.23267        8.59473        4.05549        1        1.529437        0.439520        -0.429593
Mo        11.19929        10.87214        4.03927        1        1.350320        -0.235337        -0.536827
Mo        14.75334        0.10748        4.00515        1        -1.011594        -0.602259        0.920139
Mo        17.72603        1.85388        3.95052        1        -1.510256        1.189705        0.868744
Mo        14.80208        4.23456        3.81529        1        -1.807736        -0.336934        1.040001
Mo        17.79441        6.27064        3.86343        1        0.008029        -0.224539        0.348538
Mo        14.42097        8.39117        3.96718        1        -1.105240        -0.201116        0.272747
Mo        17.63576        10.50532        3.95477        1        -0.467116        -0.478851        0.832865
Te        1.20785        2.14226        5.72650        2        0.960856        0.095119        0.219890
Te        4.58834        4.08278        5.48812        2        -0.704212        0.407449        0.836292
Te        1.19713        2.00901        2.19596        2        1.105791        0.175531        0.060868
Te        4.11110        0.05732        2.26056        2        0.929638        0.214262        -0.983205
Te        1.60949        6.31186        5.55187        2        -0.906491        -0.316700        0.351110
Te        4.45187        8.74879        5.64814        2        0.148054        -0.477317        -1.132563
Te        1.46372        6.03380        2.03001        2        -0.455028        0.808750        0.441150
Te        4.54937        4.20636        2.31637        2        -0.643804        0.201292        -0.865429
Te        1.57135        10.23892        5.59561        2        -1.222903        0.955676        0.015618
Te        4.37749        0.12131        5.65287        2        0.429042        -0.104904        0.493389
Te        1.29595        10.65179        2.32096        2        0.242161        -0.328340        -0.206623
Te        4.34283        8.45825        2.23814        2        0.557377        0.212203        -0.068838
Te        7.51499        1.96032        5.61143        2        -0.581643        0.858092        -0.702760
Te        10.58795        4.21920        5.61866        2        -0.825314        0.245929        0.020847
Te        7.40557        2.19369        2.08558        2        -0.080556        0.257581        -0.293950
Te        10.62821        0.25248        2.24864        2        0.000761        0.026426        -0.666644
Te        7.48112        6.35291        5.73108        2        -0.229873        0.060751        -1.014098
Te        10.49622        8.74855        5.73476        2        -0.635487        -0.682067        -0.236845
Te        7.43245        6.60932        2.22339        2        0.030033        -0.582070        0.470623
Te        10.47772        4.40522        2.12544        2        0.249676        -0.242748        0.520332
Te        7.63346        10.92128        5.55905        2        -0.707454        0.049278        -0.273471
Te        10.48852        0.29478        5.53525        2        -0.209745        0.355229        0.263290
Te        7.49734        10.89037        2.13708        2        0.054503        -0.594118        -0.284420
Te        10.68899        8.72722        2.35855        2        -1.341243        -0.540747        0.252833
Te        13.85284        2.34288        5.61817        2        0.002910        -0.457389        -0.224608
Te        16.98392        4.33476        5.70013        2        -0.769320        -0.310351        -1.018690
Te        13.68741        1.90124        2.16216        2        0.457702        1.059972        0.311615
Te        16.74100        12.63115        2.32073        2        0.563254        -0.396873        -0.565597
Te        13.48761        6.06916        5.61071        2        0.521127        0.910046        -0.341069
Te        16.49526        8.25677        5.65478        2        0.710537        0.286849        -0.187680
Te        13.37809        6.18099        2.15288        2        0.501889        0.495583        0.957468
Te        16.79656        4.15505        2.24137        2        1.178787        -0.033635        -0.589710
Te        13.46613        10.72426        5.53384        2        0.552791        -0.015900        0.526441
Te        16.84648        12.48256        5.82526        2        -0.110030        0.399843        -0.825859
Te        13.49888        10.85497        2.38620        2        0.112737        -0.320333        -0.055909
Te        16.46262        8.29154        2.32941        2        1.101638        0.391742        -0.615519
