54
Lattice="18.429676749 0.000008540 -0.000615361 -0.000005198 11.491115093 0.000045896 0.042448411 0.000094922 30.000000000" Properties=species:S:1:pos:R:3:tags:I:1:forces:R:3 energy=-314.59190706 stress= -4.46483 -14.27268 -3.42567 0.79862 1.90668 -0.34455 pbc="T T T"
Mo        2.29523        0.02908        3.92713        1        -0.319622        -0.003280        -1.032689
Mo        5.50788        1.72307        3.91768        1        -1.140786        1.531852        -0.163400
Mo        2.30201        3.71398        3.87173        1        -0.001365        0.986360        0.633481
Mo        5.46264        5.73982        3.97511        1        -0.019674        -0.432494        0.302124
Mo        2.31304        7.62918        3.78615        1        -0.313631        1.321097        1.327651
Mo        5.53857        9.72745        3.79244        1        -1.772349        0.186916        1.645964
Mo        8.62802        11.26062        3.82231        1        -0.794628        1.501925        0.974142
Mo        11.44659        1.81112        3.78379        1        0.723713        1.049495        -0.057065
Mo        8.64580        3.64146        3.87462        1        -0.654620        0.386228        1.468602
Mo        11.30554        5.66580        4.11737        1        0.923350        0.389654        -0.761578
Mo        8.41457        7.83755        3.93227        1        0.467084        -1.284215        0.603962
Mo        11.67012        9.40125        4.10128        1        -0.042955        -0.934598        -2.006546
Mo        14.50733        0.18074        3.90730        1        -0.324061        -0.502511        0.444271
Mo        17.73662        2.15444        4.17523        1        0.695713        -1.027844        -1.293328
Mo        14.59600        3.78278        3.81057        1        0.037585        1.126280        0.904025
Mo        17.71617        5.76526        4.18080        1        -0.551954        -0.174642        -1.503719
Mo        14.54108        7.74109        3.93684        1        0.571879        -1.363846        0.415589
Mo        17.32673        9.49977        3.68558        1        1.257544        0.892863        1.056680
Te        1.46608        1.87576        5.82757        2        -0.377697        0.491970        -0.405376
Te        4.30549        3.78606        5.63681        2        1.138922        -0.264578        -0.091391
Te        1.27560        1.79573        2.24090        2        -0.199464        0.841609        -0.613217
Te        4.51654        0.10825        1.98888        2        -0.796716        -0.541239        0.609839
Te        1.40075        5.86837        5.80950        2        0.443632        -0.422662        -0.726073
Te        4.42061        7.75038        5.56541        2        -0.102423        0.149036        -0.059225
Te        1.26251        5.74628        2.23621        2        0.237744        -0.424099        -0.249494
Te        4.53204        3.85308        2.16838        2        -0.452725        -0.505867        0.495927
Te        1.01526        9.84545        5.62218        2        0.395813        -1.631480        -0.771244
Te        4.20634        11.44792        5.64948        2        1.875153        -0.135957        0.432141
Te        1.05160        9.69875        2.11188        2        0.997667        -0.713395        0.004765
Te        4.61205        7.73947        2.27417        2        -0.691772        -0.622922        -1.142153
Te        7.57869        1.65059        5.60334        2        0.412785        0.314011        -0.088501
Te        10.66785        3.71242        5.91681        2        -1.239011        -0.409507        -1.217915
Te        7.46911        1.92423        2.02557        2        0.925323        -0.688783        0.730253
Te        10.76016        11.19886        2.10027        2        -0.385957        0.197991        0.465568
Te        7.49322        5.72548        5.80290        2        0.276764        -0.135453        -1.192505
Te        10.50815        7.71360        5.89743        2        -0.615298        -0.441493        -0.835893
Te        7.57230        5.54218        2.25929        2        -0.208349        1.067046        0.098328
Te        10.60223        3.95807        2.06047        2        -0.151274        -1.102349        0.593398
Te        7.26639        9.60433        5.81099        2        1.331068        0.096642        -0.715225
Te        10.61529        11.23673        5.57278        2        -0.093224        1.433087        1.073649
Te        7.50822        9.72020        2.12104        2        0.531188        -1.496654        -1.871943
Te        10.58317        7.34505        2.11078        2        -0.859482        1.597481        1.056655
Te        13.43185        2.10961        5.58479        2        0.537103        -1.055281        0.095842
Te        16.52404        3.84511        5.92130        2        0.225373        0.501239        -0.596028
Te        13.63913        2.06451        1.92913        2        -0.539597        -0.673595        0.915374
Te        16.58182        0.22492        2.26263        2        0.319214        0.436462        -0.499988
Te        13.50715        5.70645        5.66745        2        0.522564        0.177722        -0.335579
Te        16.63997        7.67241        5.59979        2        -0.239233        0.565552        1.122319
Te        13.48383        5.87295        2.18104        2        0.013570        -0.741928        0.894784
Te        16.88080        3.93824        2.38680        2        -0.645908        -0.015100        -0.960436
Te        13.74329        9.58165        5.83121        2        -0.017818        0.505754        -0.408321
Te        16.81237        0.09541        5.53343        2        -1.685499        -0.515312        0.965806
Te        13.63927        9.52092        2.26941        2        -0.189742        1.112595        -0.728619
Te        16.42890        7.63991        1.92809        2        0.529489        -0.579625        0.991117
