54
Lattice="18.798270284 0.000008540 -0.000615361 -0.000005198 10.852719811 0.000045896 0.042448411 0.000094922 30.000000000" Properties=species:S:1:pos:R:3:tags:I:1:forces:R:3 energy=-318.49388967 stress= -5.55387 -5.03264 -1.25899 0.47658 -1.24142 0.05316 pbc="T T T"
Mo        2.22261        10.81084        3.69326        1        -0.151369        1.509116        0.460752
Mo        5.50094        1.82932        3.93108        1        0.323124        0.015167        -0.765268
Mo        2.37298        3.64003        3.81676        1        -0.999875        -0.142780        -1.026414
Mo        5.33389        5.44631        3.70972        1        0.552752        -0.764933        0.801827
Mo        2.42340        7.30087        3.86133        1        -0.523739        -1.020306        -0.545540
Mo        5.47447        9.12592        3.99485        1        1.106304        0.315521        -0.226084
Mo        8.60400        10.68714        4.09303        1        0.832965        1.162629        0.323878
Mo        11.85389        1.71021        4.18450        1        -0.636677        1.046613        -0.403221
Mo        8.80897        3.71540        4.06356        1        -2.007948        -0.205821        -0.020517
Mo        11.99896        5.12510        4.00161        1        -1.246254        0.850770        -0.252371
Mo        8.51384        7.29601        4.21112        1        -0.692378        0.000294        -0.353036
Mo        11.81201        8.95347        4.10966        1        0.338470        0.791681        0.398681
Mo        14.81965        10.74340        3.92783        1        2.217404        -0.659959        0.275417
Mo        17.95200        1.93369        3.70275        1        1.027950        -0.150555        -0.035848
Mo        15.05922        3.53565        3.77185        1        -1.288301        1.246559        0.734672
Mo        18.04587        5.62029        3.78491        1        -0.024627        -2.446014        0.327336
Mo        14.83502        7.22643        4.00500        1        1.479666        0.628039        -0.697372
Mo        18.15735        9.06358        3.87166        1        0.834257        -0.030147        -0.455560
Te        1.20767        1.90210        5.53805        2        -0.049137        -0.621304        -0.491164
Te        4.28680        3.40961        5.59832        2        0.718108        1.735838        0.866230
Te        1.23198        2.03077        1.89096        2        0.135636        -0.952884        0.564215
Te        4.46843        0.09386        2.18194        2        0.020014        -0.530594        -0.741392
Te        1.32356        5.38878        5.63072        2        0.170791        0.641589        -0.367922
Te        4.45459        7.24324        5.57251        2        -0.126176        -0.181031        0.921269
Te        1.23283        5.44520        2.02063        2        1.057647        0.525853        0.149911
Te        4.38991        3.52379        1.98104        2        0.586820        0.369795        0.255898
Te        1.45135        9.06837        5.61005        2        -0.531066        0.066274        0.500645
Te        4.16645        0.09965        5.55947        2        0.853828        -0.349647        0.641216
Te        1.41906        8.91211        1.99663        2        -0.629663        0.440868        -0.539916
Te        4.50104        7.45402        2.08581        2        -0.030673        -0.550996        -0.259588
Te        7.64204        1.83535        5.77236        2        -0.289558        -0.007218        -0.426468
Te        10.61449        3.65142        5.98852        2        1.496205        -0.544072        -0.476659
Te        7.75401        1.74214        2.28194        2        -0.264165        0.392391        0.497527
Te        10.68658        10.80516        2.37023        2        0.569397        -0.319794        0.239117
Te        7.17838        5.42620        5.74242        2        1.193387        -0.075494        -0.295647
Te        10.89618        7.02181        5.72476        2        -0.639837        -0.025496        0.589092
Te        7.71437        5.53066        2.20184        2        -0.704752        -0.186922        0.617165
Te        10.65042        3.53574        2.19920        2        1.531625        -0.427457        0.252837
Te        7.60645        9.20449        6.05159        2        -0.844904        -1.002780        -0.571696
Te        10.80619        10.79035        6.02092        2        -0.089993        -0.285473        -1.010175
Te        7.56879        9.07954        2.18023        2        0.145086        -0.434926        0.863656
Te        10.55951        7.09901        2.50627        2        1.386957        0.022239        -0.638076
Te        14.24810        1.79689        5.75666        2        -1.557604        -0.041102        -0.238297
Te        17.03513        3.62158        5.55689        2        0.433374        0.784346        0.153786
Te        13.83057        1.65190        2.20906        2        -0.411391        0.453506        -0.161276
Te        17.22815        10.74037        2.05934        2        -1.771635        0.772386        -0.234931
Te        14.03901        5.41096        5.73481        2        0.005981        -1.269384        0.110325
Te        17.18889        7.30636        5.57855        2        -1.259209        0.107309        1.291771
Te        14.05809        5.50304        2.03590        2        -1.263394        -0.814103        0.690875
Te        16.92052        3.87225        1.90628        2        0.803402        -0.811971        0.185980
Te        14.05532        8.96757        5.92716        2        -0.957277        0.353029        -0.631448
Te        17.11620        0.03442        5.60103        2        -0.440283        0.074564        -0.434651
Te        13.72985        8.93415        2.20363        2        -0.129350        0.221801        -0.101883
Te        16.91949        7.35989        2.13022        2        -0.269776        0.333262        -0.308739
