54
Lattice="19.166863819 0.000008540 -0.000615361 -0.000005198 10.639921383 0.000045896 0.042448411 0.000094922 30.000000000" Properties=species:S:1:pos:R:3:tags:I:1:forces:R:3 energy=-318.81894921 stress= -6.99321 0.08384 2.65236 -0.54449 0.28386 1.15509 pbc="T T T"
Mo        2.59385        10.60643        4.01002        1        -1.049448        0.326704        0.566563
Mo        5.59454        1.77298        4.02872        1        0.417491        -0.349137        -0.293468
Mo        2.69403        3.51919        4.05090        1        -0.910579        0.597124        -0.530110
Mo        5.84434        5.17797        4.09308        1        -1.187476        0.456031        0.409437
Mo        2.40996        7.10660        3.91123        1        0.048571        0.815011        0.140107
Mo        5.62374        8.85053        4.12259        1        0.295490        -0.092982        -1.639634
Mo        8.83327        10.54586        3.76935        1        1.423794        2.386794        2.861627
Mo        11.99656        1.60021        3.73404        1        -1.176465        1.639428        1.868374
Mo        8.79876        3.67930        3.94818        1        1.227963        0.017829        0.314948
Mo        11.89600        5.30871        4.04210        1        1.811182        -0.238053        -0.802162
Mo        8.75960        7.10638        4.02667        1        -0.315708        0.261625        1.017096
Mo        12.05139        8.78000        3.94891        1        -0.716987        1.605838        -0.774180
Mo        15.19006        0.10005        3.82869        1        -0.906423        -1.206970        0.818421
Mo        18.31206        1.82621        3.89168        1        0.614939        -1.531505        -0.553036
Mo        15.14772        3.52238        3.75240        1        -0.410122        1.188858        0.658311
Mo        18.44780        5.10631        3.71906        1        -0.327770        1.514251        0.218575
Mo        15.01274        7.09419        3.84245        1        1.814620        0.766493        1.152571
Mo        18.31822        8.94116        3.84797        1        1.523368        -0.244005        -0.329781
Te        1.27137        1.74972        5.76729        2        0.478492        0.305359        -0.728975
Te        4.62965        3.49008        5.88630        2        0.241103        0.136141        0.413719
Te        1.69364        1.79029        2.23213        2        -1.217370        0.020956        0.137468
Te        4.60966        10.57601        2.29022        2        0.473393        -0.045178        -0.702268
Te        1.33424        5.34672        5.58147        2        -0.111167        -0.476762        0.671715
Te        4.55631        7.03445        5.78272        2        -0.259106        -0.334375        -0.184183
Te        1.52913        5.22323        2.15842        2        -0.026088        -0.050031        -0.269158
Te        4.77817        3.50651        2.20321        2        -0.526725        0.302761        -0.072620
Te        1.37049        9.00623        5.83997        2        -0.371000        -0.940809        -1.207782
Te        4.61981        0.01445        5.84280        2        -0.225351        -0.110758        0.482585
Te        1.48472        9.06324        2.04556        2        -0.647565        -0.990707        1.036315
Te        4.59193        6.89820        2.26482        2        0.318409        0.749033        0.601632
Te        7.75381        1.89544        5.60454        2        0.447397        -1.146947        0.609591
Te        11.00532        3.50902        5.71643        2        -0.669418        -0.771056        -0.067635
Te        7.79429        1.83961        2.23493        2        -0.713902        0.127301        -0.652448
Te        10.93238        0.02964        1.98764        2        -0.263447        -1.860839        -0.348887
Te        7.91474        5.26566        5.97737        2        -0.374282        0.572915        -0.624865
Te        10.92716        7.21809        5.75760        2        -0.203606        -0.946569        0.574878
Te        7.72043        5.47604        2.25061        2        0.235711        -0.748494        -1.114603
Te        10.94454        3.51256        2.18276        2        -0.475968        0.557533        -0.392851
Te        7.75603        8.96249        5.69757        2        0.217025        -0.096841        0.978746
Te        10.89633        10.60676        5.69261        2        0.127665        -0.089631        -0.725707
Te        7.72484        8.96525        2.20867        2        -1.277934        -2.043818        -1.322783
Te        10.78017        6.95311        2.33743        2        0.656223        0.902522        -1.450502
Te        13.95519        1.85980        5.43845        2        1.077569        -0.494595        1.762435
Te        17.24606        3.62225        5.52646        2        -0.224153        -0.626144        0.993453
Te        14.00648        1.79140        2.01256        2        0.591821        -0.236272        -0.757543
Te        17.10721        0.05448        2.03365        2        1.608745        -0.224139        0.002835
Te        14.12979        5.32284        5.67078        2        -0.227224        -0.214102        -0.079998
Te        17.36496        7.01121        5.58618        2        -0.394389        0.009959        -0.874579
Te        14.14429        5.38315        2.05182        2        -1.229735        -0.435795        -0.079740
Te        17.14034        3.34480        2.00629        2        1.186184        0.868300        -0.735747
Te        14.10442        8.96080        5.77538        2        0.384152        -0.237851        -0.878120
Te        17.31454        10.57081        5.64599        2        -0.489658        0.966947        0.175183
Te        14.08208        8.91042        2.09538        2        -0.144973        -0.077479        -0.105969
Te        17.28429        7.08175        2.14507        2        -0.145834        -0.234298        -0.136698
