54
Lattice="18.429676749 0.000008540 -0.000615361 -0.000005198 10.852719811 0.000045896 0.042448411 0.000094922 30.000000000" Properties=species:S:1:pos:R:3:tags:I:1:forces:R:3 energy=-316.12117293 stress= -2.37706 -5.31184 -8.55529 -0.19817 -0.04687 0.12127 pbc="T T T"
Mo        2.29328        10.54302        3.98327        1        -0.036157        0.313718        -1.166380
Mo        5.39701        1.66603        4.20160        1        0.147483        0.300882        -1.285961
Mo        2.40319        3.68984        4.03956        1        -0.446999        -1.162818        0.988263
Mo        5.50773        5.20397        4.06125        1        0.884122        -0.620023        -0.778443
Mo        2.11581        7.26688        3.92525        1        0.335304        -1.009021        -1.151958
Mo        5.38789        9.06296        3.66592        1        0.725218        0.045601        2.369823
Mo        8.57716        10.53167        3.95897        1        -0.726763        2.332183        -1.215308
Mo        11.80971        1.86851        3.96897        1        -0.318973        -1.112458        -1.133596
Mo        8.44281        3.51455        4.01305        1        -0.289587        -0.670847        0.421640
Mo        11.66864        5.47836        3.79717        1        -0.593488        0.474325        2.549738
Mo        8.30470        7.08410        3.95966        1        -0.330669        0.170714        -0.125731
Mo        11.54823        9.41914        3.78974        1        -0.125697        -1.763323        -0.529706
Mo        14.64645        0.09490        3.79879        1        1.330764        1.383491        0.166465
Mo        17.56377        1.86083        4.16105        1        0.532712        -0.217183        -1.121469
Mo        14.59268        3.98503        4.00911        1        0.205747        -1.307083        -0.336593
Mo        17.65006        5.54224        4.01498        1        1.178692        -0.221125        -1.702335
Mo        14.51934        7.28920        3.67840        1        0.054360        2.006760        1.579784
Mo        17.68255        9.16218        3.80529        1        0.143536        -0.869330        -0.052901
Te        1.50277        1.45463        5.92154        2        -1.217743        1.538343        -1.160037
Te        4.49890        3.56980        6.00853        2        -0.497661        -0.030141        -0.746993
Te        1.25022        1.66358        2.25521        2        0.066869        0.595276        1.535049
Te        4.31497        10.80031        2.07860        2        -0.333640        0.738045        0.200646
Te        1.08929        5.56688        5.91341        2        1.302328        -0.525686        -0.826382
Te        4.36731        7.14536        5.50079        2        -0.231248        0.636921        0.442722
Te        1.46232        5.22417        2.01016        2        -0.733292        0.825307        1.424072
Te        4.41906        3.23062        2.32093        2        -0.118831        1.761752        -0.210120
Te        1.13752        8.87065        5.82884        2        0.131379        0.638544        -0.547103
Te        4.31913        10.77601        5.76795        2        0.038783        -1.503895        0.384666
Te        1.26896        8.94648        1.78225        2        0.005532        0.135147        1.905250
Te        4.41792        7.14322        2.20057        2        -0.676830        -1.274399        -0.268669
Te        7.50647        1.40929        6.00760        2        0.316767        0.789972        -1.582500
Te        10.66322        3.62990        5.55748        2        0.179590        0.486777        1.335039
Te        7.38645        1.74857        2.15704        2        0.397281        -0.828652        1.477930
Te        10.51569        0.32730        1.91987        2        0.310632        -0.999015        1.100243
Te        7.76416        5.18858        6.01027        2        -1.418923        0.816514        -1.116165
Te        10.48909        7.44427        5.69262        2        0.330028        -0.155798        -1.224797
Te        7.46721        5.12629        2.07463        2        -0.310753        0.874562        0.855663
Te        10.53835        3.46425        2.33431        2        0.060935        1.316155        -1.719870
Te        7.22366        8.95442        5.64014        2        0.611438        -0.792999        0.270179
Te        10.63762        0.18518        5.68385        2        -0.142069        -0.524839        0.646937
Te        7.45470        9.03631        1.86217        2        0.243378        -0.739990        1.249419
Te        10.41239        7.21928        2.28818        2        0.244841        1.142065        -0.999600
Te        13.80527        1.82075        5.83570        2        -0.174614        0.941435        -0.869570
Te        16.63370        3.88281        5.82134        2        -0.259435        -0.814595        0.278354
Te        13.88077        2.05367        2.04040        2        -0.902443        0.228802        0.858255
Te        16.67116        0.16578        2.06967        2        0.537768        0.133213        0.384605
Te        13.54247        5.79362        5.81873        2        -0.145549        -0.484170        -0.893489
Te        16.48979        7.35588        5.57972        2        0.133336        0.417011        -0.185614
Te        13.56450        5.60288        2.00991        2        -0.097521        -1.187161        -1.361845
Te        16.67402        3.85420        2.19381        2        0.038052        -0.986003        0.641116
Te        13.60190        9.32469        5.46421        2        -0.657423        -1.920051        1.071287
Te        16.57754        10.71601        5.82030        2        0.385839        0.864517        -0.934843
Te        13.59335        9.34568        1.91342        2        -0.352673        -0.895828        0.192155
Te        16.65619        7.18644        1.94844        2        0.264624        0.710306        0.955211
