54
Lattice="19.174335959 0.000456436 -0.025753600 -0.000245188 11.539990792 0.000007040 0.013560858 0.000001769 30.000000000" Properties=species:S:1:pos:R:3:tags:I:1:forces:R:3 energy=-309.70425739 stress= "-5.75201 -10.43773 -1.63213 -2.04066 0.11770 2.40437" free energy=-309.70425739 pbc="T T T"
Mo        2.04109        11.44951        4.17399        1        0.850455        0.203206        0.089852
Mo        4.69250        1.01836        4.05161        1        -0.960482        -0.101533        0.991998
Mo        2.32989        3.42400        4.02682        1        -0.121002        0.765057        0.751808
Mo        4.38265        5.35583        4.45460        1        -0.258552        -0.216720        -1.035803
Mo        2.53185        8.03420        3.99481        1        -1.878279        -0.538838        0.947409
Mo        4.50096        9.72074        3.93302        1        1.358739        -0.538473        0.605623
Mo        8.17449        10.75325        4.10346        1        0.501204        2.183011        -1.973566
Mo        10.98804        2.08872        4.00021        1        -0.010104        0.502863        -1.389239
Mo        8.50583        4.16231        3.57193        1        0.737033        -2.296435        -0.057837
Mo        10.76766        6.06429        3.76190        1        -0.001489        -0.913522        0.451657
Mo        8.52886        7.35125        3.71578        1        -0.314812        0.623552        0.027471
Mo        10.55280        9.69198        3.97700        1        1.598244        -0.330713        0.807973
Mo        14.98761        11.51341        3.45325        1        0.649933        0.228312        0.621621
Mo        16.81476        2.31041        4.09245        1        0.753320        0.011424        -0.247604
Mo        14.99095        4.55399        3.48224        1        -1.146085        -1.317573        0.557669
Mo        17.01914        6.03665        3.78044        1        1.626503        0.691987        0.190784
Mo        14.86533        8.03307        3.49349        1        0.507553        -0.297373        1.293024
Mo        17.15401        9.81841        3.84476        1        0.518158        -0.180576        0.458886
Te        0.31385        2.32047        5.45247        2        0.304480        -0.691000        0.373489
Te        4.19563        2.99225        6.04073        2        -0.669113        0.662639        -0.278396
Te        5.86503        11.12353        2.02247        2        0.147569        -0.060184        0.866556
Te        2.75975        1.61468        2.19252        2        0.359616        0.029705        -0.832271
Te        1.28926        5.88496        5.27785        2        0.214399        -0.315010        0.613271
Te        4.20059        7.39287        6.09197        2        -0.482008        0.744670        0.295653
Te        5.83942        3.24086        3.07127        2        0.265202        1.568897        -0.467756
Te        2.71211        5.85560        2.45769        2        0.447082        -0.693580        -1.440895
Te        0.50595        9.76914        5.66306        2        0.259989        -0.572269        -0.530708
Te        3.79869        11.00288        6.22822        2        0.285593        0.601531        -1.007913
Te        5.81934        7.28930        2.46983        2        -0.312245        0.070382        0.939541
Te        2.47834        9.72614        2.03073        2        0.210301        0.711432        -0.230467
Te        7.30799        1.65673        5.41672        2        -0.329737        -0.405913        -0.822029
Te        10.05114        4.01298        5.77196        2        0.849101        0.358115        -0.795007
Te        12.34492        11.46161        2.66265        2        -0.795664        0.948822        -0.515771
Te        9.10737        1.56842        2.17996        2        0.078365        0.702743        0.547116
Te        7.08490        5.57662        5.19600        2        -0.574144        0.029301        0.929148
Te        10.27393        7.92783        5.89578        2        -0.082910        -1.186746        -0.447863
Te        12.49692        3.88830        2.42124        2        -0.873894        0.350523        0.092174
Te        9.13047        5.69543        1.50564        2        0.358545        0.094954        0.807606
Te        7.07285        9.01847        5.50465        2        -1.165553        -0.588442        0.946279
Te        10.25152        0.11678        5.89802        2        -0.084068        -0.030303        -0.251157
Te        12.31544        7.98092        2.41679        2        -0.352181        -0.404020        -0.408081
Te        9.04057        9.25822        1.91689        2        -0.933063        0.526094        -0.691785
Te        13.89838        2.26745        5.01899        2        -0.167521        -0.242075        -0.325380
Te        16.27439        4.35605        5.87173        2        0.828239        0.099124        -0.147925
Te        18.73191        0.33016        3.08441        2        -0.579764        0.242323        -1.150825
Te        15.55252        2.05017        1.71038        2        0.105790        0.578891        0.513880
Te        13.19528        6.02058        5.09956        2        0.999137        0.388900        -0.380172
Te        16.98255        7.97113        5.69159        2        -1.733003        -0.900870        0.315617
Te        19.06426        4.14841        2.64834        2        -1.235308        -0.370768        0.371754
Te        15.58227        6.26799        1.50161        2        -0.088264        -0.258590        0.015008
Te        13.37204        10.00899        5.03613        2        0.136459        -1.054071        0.284138
Te        16.49008        0.11164        5.78108        2        -0.331877        0.276531        -0.175594
Te        18.72183        7.99821        2.68004        2        1.247377        -0.478806        -0.701429
Te        15.83559        9.66729        1.48671        2        -0.698651        0.742673        0.609600
