54
Lattice="19.173937585 0.000456147 -0.025753600 -0.000245476 10.515591813 0.000007040 0.013560576 0.000001770 30.000000000" Properties=species:S:1:pos:R:3:tags:I:1:forces:R:3 energy=-315.47172649 stress= -0.95239 -3.29387 -2.89678 2.10872 0.57465 -0.53399 pbc="T T T"
Mo        2.10224        0.41942        4.21089        1        0.042643        -0.775809        0.061294
Mo        4.35001        1.98897        4.23486        1        1.648659        -1.000326        0.579900
Mo        2.18797        3.43606        4.27727        1        -1.450045        0.505200        -2.381047
Mo        4.53904        5.18667        4.22158        1        -1.191558        0.598223        1.192511
Mo        2.10164        6.63724        4.27416        1        0.405387        0.276332        -1.083192
Mo        4.58734        8.66831        4.45363        1        -0.896239        -0.632373        -0.551243
Mo        8.49915        10.51144        3.71907        1        0.473568        -0.061553        0.188667
Mo        10.71012        1.90582        3.77279        1        0.966032        -1.399607        -0.809354
Mo        8.43016        3.48876        3.71471        1        0.466642        -0.167883        2.031999
Mo        11.06391        5.39429        3.56354        1        -0.582583        -1.033234        1.448269
Mo        8.62631        6.98125        3.75996        1        0.544159        -0.638395        -0.151934
Mo        10.85356        8.81887        3.71862        1        -1.001190        0.846835        0.050667
Mo        14.89857        0.14986        3.45780        1        -0.338347        0.534686        0.605200
Mo        17.29189        1.78880        3.98717        1        -0.226861        -0.374715        1.026108
Mo        15.05744        3.34524        3.54538        1        -0.925145        0.523517        2.194787
Mo        17.54410        5.11903        4.10673        1        -2.470363        0.091047        -0.901382
Mo        14.99685        6.98841        3.61453        1        -0.268835        0.875894        0.614562
Mo        17.32481        8.96138        3.90312        1        0.149683        -2.535030        -1.820862
Te        0.57905        1.78291        6.01072        2        -0.160488        -0.041968        -0.933377
Te        3.74856        3.51092        6.41973        2        0.842308        0.262898        -0.495743
Te        5.83108        0.11092        2.53115        2        0.085457        -0.454295        0.636435
Te        2.93205        1.77894        2.00305        2        -0.505158        0.107971        0.738879
Te        0.48550        5.20168        5.85283        2        0.505386        -0.189311        0.242051
Te        3.73541        6.93564        6.40362        2        0.311919        -0.079639        -0.782872
Te        5.94757        3.71929        2.41194        2        -0.272910        -0.905495        0.254297
Te        2.67696        5.08689        1.90885        2        0.409715        0.328647        2.317477
Te        0.40009        8.85515        5.59158        2        0.856954        -0.240752        -0.386965
Te        3.85631        10.50078        6.24325        2        -0.006720        0.733245        0.001845
Te        6.11178        6.92679        2.72084        2        -0.841355        0.632724        -0.499998
Te        2.69856        8.77799        2.62530        2        -0.001255        -0.378280        -0.765469
Te        7.02530        1.68199        5.33139        2        -0.578189        0.461640        0.274660
Te        10.29764        3.53791        5.70004        2        -0.077562        1.316496        0.124210
Te        12.42738        0.27249        2.13941        2        -0.517772        -0.220254        -0.150658
Te        8.78389        1.74197        1.76400        2        0.665379        -0.261222        -0.753555
Te        7.08540        5.23071        5.51334        2        0.083571        0.009706        -0.375193
Te        10.61909        6.98798        5.67596        2        -0.592395        0.162306        0.157364
Te        12.46894        3.65376        1.88298        2        0.025667        -0.719602        0.965673
Te        9.12783        5.02366        1.80654        2        -0.170331        1.936483        -1.710325
Te        7.16805        8.71049        5.35524        2        0.024735        0.125396        0.443353
Te        10.30869        0.17802        5.90074        2        -0.506418        -0.754103        -1.593270
Te        12.49812        7.26505        2.09164        2        0.152787        -0.680055        -0.012668
Te        9.09396        8.69374        1.68834        2        -0.359488        0.156135        0.188000
Te        13.19820        1.64395        5.24284        2        0.738250        0.880992        -0.949048
Te        16.49722        3.44287        5.93955        2        -0.408240        -0.425059        -0.217228
Te        18.94534        0.15638        2.45895        2        0.217369        -1.083665        0.169417
Te        16.01166        1.84916        1.64550        2        -0.506465        -0.762818        -0.756950
Te        13.43199        5.08569        5.08453        2        0.070228        0.557932        -0.228572
Te        16.31808        6.93064        5.98490        2        0.769505        0.180894        -1.521089
Te        18.94400        3.21126        2.43485        2        0.593039        1.321568        0.527043
Te        15.72116        5.19299        1.86723        2        0.846068        0.618277        -0.992961
Te        13.16741        8.90396        4.90236        2        1.979425        -0.439378        0.907023
Te        16.26773        10.31641        5.64028        2        -0.300900        2.060990        2.723775
Te        18.97467        6.68202        2.46721        2        0.306161        1.155273        0.487758
Te        15.55867        8.88929        1.68507        2        0.941879        -1.012523        -0.271981
