54
Lattice="19.174335959 0.000456436 -0.025753600 -0.000245188 11.539990792 0.000007040 0.013560858 0.000001769 30.000000000" Properties=species:S:1:pos:R:3:tags:I:1:forces:R:3 energy=-309.56278153 stress= "-8.11782 -15.33409 -8.95467 0.22553 -0.10490 -0.58301" free_energy=-309.56278153 pbc="T T T"
Mo        2.11775        0.14387        4.22295      3     0.047800        -0.605391        0.939007
Mo        4.12781        2.18753        4.59832      3     1.295076        -0.819606        0.237953
Te        0.76028        2.27495        5.85975        2        -0.336330        -0.862493        -1.060111
Te        3.89221        4.37738        6.24513        2        0.199791        0.017619        0.321812
Te        5.51873        0.64400        2.80818        2        0.427326        -0.729993        0.151486
Te        2.59197        2.11358        2.39559        2        0.270268        -0.680254        -0.143012
Mo        2.22900        4.11343        4.20153      3     0.418917        1.135106        -1.122234
Mo        4.55526        6.46759        4.40118      3     -0.008002        -0.130161        -0.415921
Mo        2.29058        7.63921        3.99901      3     -0.825850        0.405274        0.360653
Mo        4.31058        10.07295        4.40079     3      0.548645        -0.347800        1.043740
Mo        8.62272        0.60286        3.59782      3     -0.914155        -1.142982        -0.633968
Mo        10.88303        1.64857        3.58668     3      0.346349        0.267612        -1.080406
Mo        8.58266        3.70153        3.40108      3     0.173288        0.320706        1.520020
Mo        10.61128        5.78465        3.89562     3      0.805577        -0.070422        0.660645
Mo        8.58653        8.10235        3.60192      3     -0.215592        -0.189718        1.234698
Mo        10.72187        9.53396        3.58384     3      0.907071        0.169538        -0.178027
Mo        15.12859        11.18219        3.62684    3       0.289799        0.593732        -0.909204
Mo        17.51894        2.00413        4.00422     3      -0.520325        -0.334508        -0.220235
Mo        15.06351        3.45437        3.66759     3      0.097314        0.142939        -1.292551
Mo        17.36125        5.35280        3.97256     3      -1.234387        0.036100        -0.355550
Mo        15.17338        7.03641        3.36852     3      -0.555162        -0.013171        0.018802
Mo        17.07300        8.96061        4.07616     3      1.356309        1.421641        -0.230122
Te        0.43141        5.58631        5.58121        2        0.505768        0.727121        0.153767
Te        3.65338        7.99712        6.51976        2        0.166566        0.518415        -1.890574
Te        5.92447        4.20975        3.22298        2        -0.769494        0.143228        0.030131
Te        3.11152        5.72929        2.11234        2        -0.363305        0.418218        0.767664
Te        0.46382        9.26443        5.43005        2        0.299812        0.349340        -0.515353
Te        3.79345        0.22784        6.59307        2        -0.393122        0.237889        -1.569285
Te        5.94688        8.41635        2.70152        2        -0.551981        -0.636258        0.305187
Te        2.84246        9.90323        2.17734        2        -0.505563        -0.621080        0.734190
Te        7.17260        2.20079        5.42763        2        -0.094365        0.267633        -0.704717
Te        10.30180        3.51726        5.63718        2        0.025982        0.683773        -1.543215
Te        12.62581        11.16661        2.06768        2        -0.528699        0.707184        0.555291
Te        8.27806        2.15849        1.27940        2        1.375532        -0.159511        0.903690
Te        7.00422        6.80042        5.65932        2        0.052604        0.068796        -0.376137
Te        10.17709        7.65183        5.86728        2        0.319884        0.228969        -1.491416
Te        12.44953        3.56553        2.14795        2        -0.164344        -0.012492        0.878789
Te        8.89377        6.06093        1.90763        2        -0.042937        -0.432543        -0.505406
Te        7.23957        10.39073        5.39613        2        -0.484884        -0.913773        -0.692802
Te        10.52359        11.38441        5.49734        2        -0.404983        -0.362011        0.573450
Te        12.29857        7.36725        2.40635        2        -0.268338        0.124547        -0.707282
Te        8.97942        9.93438        1.43936        2        0.063658        0.207819        1.771358
Te        13.38887        1.43033        4.99221        2        0.668158        0.366802        -0.150793
Te        16.60627        3.56493        5.90846        2        -0.384198        0.279874        0.101509
Te        18.70942        11.23716        3.01691        2        0.382015        -0.021302        0.052097
Te        15.94621        1.61465        1.72579        2        -0.315373        -0.148424        1.172713
Te        13.52694        5.56033        4.76382        2        -1.250998        -1.374413        0.958538
Te        16.28195        7.26625        5.87625        2        0.078851        -0.764705        -0.046405
Te        19.03813        3.72755        2.33896        2        -0.361938        -0.182916        0.985493
Te        15.83827        5.21588        1.49622        2        0.084211        -0.168248        1.305400
Te        13.42710        9.09686        4.59032        2        0.636193        0.568228        0.521994
Te        16.82385        11.36757        5.80572        2        -0.728186        -0.264903        -0.699529
Te        18.79901        7.15898        2.56002        2        0.758858        1.347128        -0.026753
Te        15.84746        9.16381        1.71909        2        -0.373768        0.214345        0.273422
