54
Lattice="20.707852593 0.000456147 -0.025753600 -0.000245476 10.309403738 0.000007040 0.013560576 0.000001770 30.000000000" Properties=species:S:1:pos:R:3:tags:I:1:forces:R:3 energy=-314.02640650 stress= -12.30608 -2.87065 1.54514 -4.36432 1.98954 1.72769 pbc="T T T"
Mo        2.25727        9.95695        3.94861        1        -0.256512        0.044723        0.865321
Mo        4.93977        2.06543        3.99287        1        -0.288849        0.114246        0.511370
Mo        2.45539        3.78262        3.96754        1        -1.520547        -0.214694        0.139923
Mo        4.88660        5.08014        4.06988        1        0.585165        0.465176        -0.668588
Mo        2.31292        6.99825        3.76557        1        -0.143741        -0.809043        0.008509
Mo        4.87881        8.58421        4.05166        1        -0.066932        0.316372        -0.661452
Mo        9.23289        0.25691        3.90708        1        0.466417        -0.618632        0.013866
Mo        11.77732        1.64416        4.00275        1        -0.595569        -0.233995        0.448711
Mo        9.23086        3.63265        3.82312        1        0.276412        -0.798471        -0.101057
Mo        11.78697        5.45446        3.96301        1        -0.579867        -1.099321        0.268710
Mo        9.22894        7.08741        3.98132        1        -1.277595        -1.839753        0.311933
Mo        11.77807        8.57894        3.90924        1        -0.001911        0.444388        0.968461
Mo        15.95894        10.24727        3.69637        1        1.380993        -0.597431        0.757755
Mo        18.59372        1.36927        3.85516        1        0.521298        1.103070        1.810875
Mo        16.18627        3.29190        3.80416        1        -0.477569        -0.146449        0.369138
Mo        18.60599        5.00082        3.69330        1        1.040130        0.335765        1.783372
Mo        15.92786        6.85692        3.73351        1        0.854016        -0.582095        0.664741
Mo        18.27175        8.30726        4.03825        1        1.852330        1.497307        -1.603696
Te        0.84604        1.69394        5.50719        2        0.047270        -0.119459        -0.641812
Te        4.11835        3.63908        6.03906        2        -0.240069        -1.028310        0.906896
Te        6.62897        0.19160        2.78224        2        -0.453542        -0.784149        -0.885842
Te        2.96716        1.71483        2.32179        2        -0.159696        -0.021513        -1.315020
Te        0.69973        5.24356        5.58044        2        0.191344        0.014375        -0.956764
Te        4.00957        6.88160        5.85448        2        -0.269268        0.469843        0.969698
Te        6.52393        3.55938        2.20308        2        0.209521        0.278031        0.732225
Te        3.34659        5.15977        1.84962        2        -0.619805        0.466614        0.522163
Te        0.26355        8.47540        5.26551        2        0.880155        -0.171261        -0.212469
Te        4.18224        0.25700        5.85264        2        -0.366994        -0.946089        0.128682
Te        6.61675        6.74213        2.89986        2        0.629448        1.283952        -1.282031
Te        3.25707        8.62372        1.84376        2        0.204745        -0.010817        0.289806
Te        7.46529        1.90433        5.08590        2        0.171088        0.477953        1.239791
Te        10.97823        3.56634        5.87479        2        0.503830        -0.257701        -0.530202
Te        13.62656        10.14525        2.30523        2        -1.249402        0.584628        0.082642
Te        10.10469        1.89997        1.83174        2        -0.288149        -0.404030        0.944292
Te        7.60758        5.09423        5.59071        2        -0.169172        0.246160        -0.453606
Te        10.83799        6.98414        5.95601        2        1.291455        -0.053552        0.748256
Te        13.28944        3.26915        2.53667        2        1.067209        1.025247        -0.157825
Te        9.90166        5.30010        1.95321        2        0.438158        0.668311        -0.244695
Te        7.54979        8.69911        5.53042        2        -0.049237        0.073764        -0.420604
Te        10.97169        10.24230        5.96905        2        0.193892        0.513355        -0.419578
Te        13.54217        6.87797        2.46017        2        -0.932567        0.161697        -0.838601
Te        9.77705        8.63920        2.06048        2        0.490618        1.259041        -1.663092
Te        14.57659        1.69799        5.44887        2        -0.481897        -0.031812        -0.635865
Te        18.25352        3.35103        5.72041        2        -0.657367        -0.683955        0.035866
Te        20.30713        0.00777        2.40893        2        0.429434        -1.212443        -0.132100
Te        17.01951        1.66335        1.84394        2        -1.127414        -0.490940        -0.847285
Te        14.37806        5.26013        5.22568        2        -0.524104        -0.983721        0.211678
Te        17.59998        6.62585        5.80788        2        0.356437        -1.044802        0.615706
Te        20.49516        3.07397        2.40752        2        -0.266556        1.242350        0.438376
Te        16.87071        4.94825        1.83655        2        -1.234558        0.546904        -0.934264
Te        14.22732        8.68434        5.39645        2        0.464583        -0.306368        -0.630272
Te        17.69272        10.17273        5.89776        2        -0.106363        0.040848        -0.308076
Te        20.12274        6.77338        2.21979        2        0.088887        0.470170        0.494761
Te        16.84824        8.32517        1.80789        2        -0.210686        1.336496        -0.688940
