54
Lattice="19.557416337 0.000456147 -0.025753600 -0.000245476 10.515591813 0.000007040 0.013560576 0.000001770 30.000000000" Properties=species:S:1:pos:R:3:tags:I:1:forces:R:3 energy=-318.88645408 stress= -5.89057 -4.39412 -0.65380 -0.53977 -0.61888 0.38740 pbc="T T T"
Mo        2.05832        10.41937        3.96954        1        1.824658        0.101169        -1.807441
Mo        4.55105        1.63697        4.08884        1        0.028787        -0.464969        1.320800
Mo        2.16960        3.37717        3.82858        1        0.162852        0.656540        -0.086764
Mo        4.46090        5.15641        4.23859        1        -0.142012        0.424073        -2.379679
Mo        2.14246        7.02943        3.89765        1        0.698837        -0.013550        0.217844
Mo        4.73415        8.53181        4.17863        1        -1.499315        0.005847        0.340128
Mo        8.80032        10.25699        4.08841        1        -0.095017        0.451073        -0.869450
Mo        11.07159        1.84955        4.07001        1        -0.149938        0.248927        -0.931472
Mo        8.54835        3.58256        3.59072        1        0.787809        -0.717449        1.788246
Mo        11.04573        5.28563        3.84809        1        0.380524        -0.181896        0.641445
Mo        8.74693        6.86294        3.81487        1        -0.034178        -0.099344        -0.524584
Mo        11.12016        8.75981        4.08545        1        -0.848816        0.103487        0.473450
Mo        15.19960        0.12032        3.67539        1        0.066597        0.295003        0.978740
Mo        17.71187        1.84803        3.90663        1        -0.348390        0.820805        -0.658569
Mo        15.37000        3.61952        3.69622        1        -0.344416        -0.388151        -0.012179
Mo        17.62921        5.47625        3.93702        1        -0.401480        -0.398447        -0.408344
Mo        15.18863        7.08912        3.74894        1        0.257407        0.087674        -0.349310
Mo        17.53384        8.82200        3.88459        1        0.391666        0.805755        -0.055260
Te        0.64024        1.64952        5.42226        2        -0.766178        1.092857        0.168296
Te        3.71709        3.36265        6.00384        2        0.140778        -0.434508        0.765294
Te        6.31458        10.29031        2.91202        2        -0.134839        0.403220        -0.971845
Te        2.99599        1.62782        1.94716        2        -0.625179        -0.176473        0.009492
Te        0.50182        5.30926        5.33753        2        0.412384        0.072659        0.155008
Te        3.77701        6.87176        6.14255        2        -0.091006        0.437171        -0.222506
Te        5.95763        3.41294        2.54093        2        0.268000        0.102905        -0.554581
Te        2.90663        5.23766        1.91484        2        0.159669        0.097215        1.028153
Te        0.44837        8.93595        5.47555        2        -0.153761        -1.253637        -0.149503
Te        3.73587        10.37494        6.13528        2        0.614995        -0.082188        -0.927354
Te        6.28872        6.80564        2.41206        2        -0.893635        0.283680        0.978398
Te        3.09153        8.69283        1.99605        2        -0.294776        0.298515        0.543283
Te        7.17337        1.67743        5.36190        2        -0.276401        -0.009759        0.049819
Te        10.05489        3.57364        5.80744        2        0.571410        0.285328        0.092613
Te        12.59974        0.09194        2.59459        2        0.610680        0.099224        -0.703223
Te        9.35157        1.57447        1.98654        2        0.010891        -0.148673        0.201506
Te        6.99761        5.03895        5.30870        2        0.532506        0.558704        0.452154
Te        10.46414        6.87992        5.95208        2        0.132533        0.417079        -0.012579
Te        12.61928        3.59598        2.20747        2        0.198357        -0.319171        0.775842
Te        9.43349        5.15956        1.74865        2        -0.170839        0.748874        -0.985382
Te        7.29238        8.42556        5.54978        2        -0.589606        0.384719        0.259469
Te        10.65599        0.07211        6.01372        2        -0.264669        -0.134027        0.827102
Te        12.47605        7.30177        2.38355        2        1.438709        -1.409664        -0.563343
Te        9.33551        8.75650        1.90703        2        0.103235        -0.543469        0.619340
Te        13.65178        1.98464        5.38840        2        0.196213        -0.268143        -0.614692
Te        17.11672        3.72477        5.87144        2        -0.597114        -0.610898        -0.303923
Te        19.13421        0.06048        2.31886        2        0.692739        -0.102960        0.258270
Te        16.04982        1.83198        1.75958        2        -0.313458        0.038711        0.116605
Te        13.60174        5.23120        5.14895        2        -0.165759        0.397383        0.271617
Te        16.95986        7.27457        5.89143        2        -0.457536        -0.945637        0.116705
Te        19.35310        3.72853        2.42474        2        -0.634536        -0.675394        -0.003219
Te        15.99978        5.25616        1.70938        2        -0.230690        0.957871        0.560870
Te        13.67863        8.88488        5.40052        2        0.074231        -0.333904        -0.373144
Te        16.93244        0.21842        5.73411        2        -0.378427        -0.798139        0.966168
Te        19.23677        7.15227        2.40724        2        0.179575        0.049452        -0.073632
Te        15.81618        8.84055        1.80003        2        -0.025927        -0.231406        -0.423021
