ITEM: TIMESTEP
0
ITEM: NUMBER OF ATOMS
54
ITEM: BOX BOUNDS xy xz yz pp pp pp
-2.6732977382222696e-02 1.9174382766165152e+01 2.9506541316800546e-05
0.0000000000000000e+00 1.1540010645371973e+01 -2.6732977382222696e-02
0.0000000000000000e+00 2.9999991154072013e+01 1.9850802815995338e-05
ITEM: ATOMS id type c_1[1] c_1[2] c_1[3] c_1[4] c_1[5] c_1[6] c_1[7] c_1[8] c_1[9] c_1[10] c_1[11] c_1[12] c_1[13] c_1[14] c_1[15] c_1[16] c_1[17] c_1[18] c_1[19] c_1[20] c_1[21] c_1[22] c_1[23] c_1[24] c_1[25] c_1[26] c_1[27] c_1[28] c_1[29] c_1[30] c_1[31] c_1[32] c_1[33] c_1[34] c_1[35] c_1[36] 
1 1           2.14052929          5.013156803          1.873884066          4.472305165         0.6382548329          1.864703876      0.0002797685805       0.002204302651      8.330916301e-18       8.83739892e-15      1.135928714e-34      1.141200779e-28         0.4503355117         0.4124211539         0.3383208403         0.1241113046        0.04963516571      0.0006192964854      8.200271223e-05      3.357022837e-13          4.057423336          3.664376773          3.128434218          1.040026971         0.6997076787        0.03905529917       0.007114988069      3.737572573e-07          3.389292625          3.275723078          2.124416762          1.425969545         0.1487573158        0.06643969846      0.0002022343357       0.004033018387 
2 1           2.41355405          5.075507499          2.126588475          4.518644889         0.7503452089          1.854231314      0.0002830276926       0.001534727005      8.168070846e-18      1.031075356e-16      1.092248454e-34      6.561245769e-33         0.6758250931         0.6148462511         0.5184439093         0.1740944366        0.07878036637       0.001091130483      0.0001193089036      3.729888727e-10          4.597318526          4.172138838          3.511203276          1.215728148         0.7159894923        0.04342745981       0.006208182783      2.065553823e-06          3.394086626          3.274556222          2.143989432          1.408223464         0.1453506228        0.06448320966        0.00251196217       0.003914604974 
3 1          2.328029833          5.057177913          2.066563438          4.478453225         0.7770449498          1.758527636      0.0003239768497       0.001328441025      8.176131086e-18      2.006604554e-16      1.092249641e-34      5.399410345e-32         0.6980531199          0.642283009         0.5228948535         0.1941921362        0.05475019681       0.002149721876      0.0001172534401      6.150624549e-13          4.524205722          4.096780608          3.465185777          1.183630072         0.7428766276        0.03735320459       0.009842860688      4.749177215e-06          3.158012533          3.027385623          2.038922192          1.258810651           0.16827261        0.04898912118      0.0003339467009       0.001647445425 
4 1          2.317416155          5.141571674          2.045622886          4.563501733         0.7365468688          1.840110788      0.0002782361666       0.001643035428      3.388860831e-18      2.352605875e-16      1.893899554e-35      4.902697203e-32         0.6201007447         0.5711003599         0.4633197138         0.1736908712        0.04681398229       0.001425587364      9.192109371e-05      2.005993773e-14          4.483931585          4.064529773          3.428174542          1.180732319         0.7252971093        0.03922552563       0.007818713011      6.968746406e-05          3.404915815           3.27777752          2.167838796          1.394513674          0.166936626        0.06555835655      0.0005964418644        0.00373918929 
5 1          2.131328122          4.966706088          1.853549271           4.42881925         0.5980659837          1.840507273      0.0002203629371       0.002135955297       3.38074704e-18      2.621015279e-15       1.89388769e-35      5.218734554e-30         0.4619855791          0.415950347         0.3630537696         0.1091033082        0.06618274121      3.017215048e-05      0.0001784414287       7.96942146e-17          3.866138425          3.482604729          3.009096831         0.9553526512         0.6523330552        0.02344293744       0.005011720231      8.917917379e-06          3.289120094          3.180019244          2.053358139           1.39442438         0.1541745024        0.06255770214      0.0002369953796       0.002758545373 
6 1          2.162396698          5.115363526          1.880001766          4.561856262         0.5882747288          1.891174645      0.0002592646031       0.001740137792      8.330862476e-18      2.186318376e-16      1.135928714e-34      3.218356302e-32         0.3960133691         0.3576053548         0.3092897482        0.09582536314        0.05410414193       0.000255460727      0.0001176901627      1.022755512e-12          3.974626795          3.573371792          3.106933767         0.9687882149           0.71087771        0.03254731235       0.003880419505      1.511291044e-06          3.523228681          3.402272027          2.217603969          1.471600837         0.1539873648        0.07247840104       0.000814948925       0.003271882867 
7 1          2.373924414          5.074454219          2.093952864           4.48828886         0.7416829333          1.743626451      0.0001541059292        0.00131717321      5.977164596e-20      4.371059878e-16       5.33266459e-39      2.664367186e-31         0.6483631097         0.5945138042          0.490645242         0.1745000864        0.05272268024       0.001202231806      0.0003500022181      7.580456776e-13          4.409511549          3.987834339          3.397624528          1.128110494         0.7007008431        0.02618809633        0.01045219039      6.610099591e-05          3.104589467          2.971900786          2.011457749          1.230019517          0.182467657        0.04574023299       0.000213954797        0.00473108838 
8 1            2.1370073          4.853242095          1.854794329          4.324665666         0.5760926094          1.783695642       6.37005418e-05       0.001556349842      4.858336588e-21      4.068259277e-16      4.282340655e-41      1.812436709e-31         0.4422751623         0.3970581905         0.3502622187         0.1014560475        0.06547612548      2.273852362e-05      0.0002276454121       4.20889183e-12          3.709249685          3.333646156          2.910527469         0.8890918458          0.631508953        0.02122017923       0.002377534494       2.49073157e-07          3.092831908          2.985223596          1.944327591          1.295864057         0.1532103335          0.055943816       0.001458282941       0.007887737047 
9 1          2.035067874          4.938690048          1.760065509          4.397208038         0.5306416103          1.782425976      0.0001466615802       0.001618613405      5.512525223e-19      6.392717015e-16      5.162680376e-37      3.340218589e-31         0.3503960143          0.315307195         0.2763593721        0.08179356075        0.05008511563      6.022202313e-05      6.752617692e-05      4.583676423e-18          3.589150785           3.21294369          2.841366795         0.8322605019         0.6506810498        0.02092128052       0.003439712096      2.370308657e-06          3.229038592          3.096194212          2.085340713          1.286224217            0.1596404        0.05135003053       0.002336724468      0.0008982970629 
10 1          2.214881549          5.132404848          1.940987789          4.572788158         0.6643073816          1.901492047      0.0002092580018       0.002756576103      5.615796815e-19      4.664913088e-14      5.164595772e-37      3.151508648e-27          0.474308626         0.4350228074         0.3542299721         0.1331217838        0.05140276118      0.0005596559962      0.0001938608215       1.17678623e-11          4.223041383          3.827804499          3.228996181          1.111941598         0.6812659926         0.0337342771       0.006457967323      3.237137668e-05           3.59619669          3.459320719          2.288059794          1.474785211         0.1971185234        0.06922405291      0.0008633406303      0.0005105397544 
11 1          2.456668359           5.13579071          2.171237756          4.552482074         0.7883802153          1.807768046      0.0002689550724        0.00138074431      2.198710391e-18      2.413020894e-16      7.983205168e-36      8.103288988e-32          0.710533144         0.6497116215         0.5382273914         0.1909214772        0.07449889194       0.002139083857      7.099132248e-05      2.863576244e-09          4.689038279          4.257025037          3.563914683           1.25885726          0.761705789        0.04052554212       0.006366349892      3.437923942e-05          3.346742176          3.206153529          2.171616213          1.321223527         0.1641227803        0.05367433597      0.0008365874022      0.0009190493438 
12 1              2.48257          5.093018281          2.205438076           4.50315282         0.8228167428          1.743725815      0.0002945193778         0.0020604081      2.243294315e-18      1.424640816e-14      7.988303469e-36        2.9815047e-28         0.7549362985         0.6957814812         0.5639663941         0.2117126097        0.05371145461       0.002632480121      0.0001028609459      3.375206058e-12          4.790610668          4.339624364           3.66903279          1.254660946          0.778416209        0.04059492864        0.01090655917       0.000290611129           3.14671499          3.004948774          2.056958799          1.224413149         0.1841236964        0.03921151245      0.0006738131673       0.001340286471 
13 1          2.422256329          5.134726353          2.154129167          4.570403375         0.8533841048          1.889665892      0.0009200896309       0.001989253686      3.424944849e-16        8.1443094e-16      1.442232795e-31      5.031915875e-31         0.7300816387         0.6788246256         0.5292594971         0.2227646029        0.04530151143       0.003074834524      0.0002583116867      5.105174322e-10          5.004284174          4.568010263          3.742419276          1.419035307         0.7957618091        0.06807630669       0.008991445315      6.970264424e-05          3.536099275          3.415680139          2.220758417          1.482287505          0.151321632        0.06952649509       0.001101847022      0.0006244768492 
14 1          2.146622237          5.096339248          1.885587415          4.540574004         0.6722194557          1.880053179       0.000390556395        0.00284685225      4.123764369e-17      9.522396389e-15       2.72339094e-33      7.403891604e-29         0.5288462575         0.4767371863         0.4152784211         0.1254308597        0.07173252553        0.00014720499      0.0001408245932      2.963914839e-09          4.153079074          3.762182418          3.175302013          1.093082429          0.682941604        0.03388057559       0.006872965049      1.966029395e-05          3.497343602          3.373662092          2.200168482          1.462219818         0.1669661059        0.05725456659      4.139233376e-05      0.0001343238484 
15 1          2.026236665          4.997061442          1.750954393          4.448136559         0.5084839847          1.840916283       4.04142249e-05       0.002398179528      1.081652675e-21      5.310876378e-15      2.169553462e-42      3.475976614e-29         0.3557130751         0.3177711927          0.285141501          0.077881849        0.05879386406      3.049045568e-05      4.299293233e-05      5.387380426e-21          3.593830353          3.200709144          2.879553625         0.7941724106         0.6921084788        0.01672410578       0.006931943715       3.93487077e-06          3.349364408          3.230390442          2.113969162           1.39567422         0.1813615994        0.07400885966      0.0006605735176       0.007821604412 
16 1          2.110396941          5.016928481           1.84174936          4.471804248         0.6194589679          1.856183871      0.0002188418816       0.001841260296      1.477873397e-18      3.511050515e-16      3.655177156e-36      9.950866638e-32          0.443355718         0.4061620008         0.3327692164         0.1222527404        0.04642230856      3.975550891e-05      0.0001340518609      1.237794299e-12          3.982466267          3.581170351          3.106743126         0.9794529633         0.7170932658        0.03616363459        0.01171866773      1.905144848e-06          3.387055416          3.270216912          2.125994679          1.421678066         0.1629658535         0.0659173526      0.0004656370353        0.00062845471 
17 1          2.426685644          5.236281571          2.140916671          4.677151615         0.7569879836          1.985738311      0.0002115359669       0.002710520646      1.476937221e-18      2.667683859e-15      3.655175027e-36      5.014464721e-30         0.6645064127         0.6034921686         0.5107585359         0.1705502637        0.08407799961       0.002111090881       0.000649391754      3.876189589e-11          4.894933116          4.445184858          3.722849543          1.312958603         0.7828671221        0.04958854479       0.007624973285      3.582308401e-05          3.895688291          3.765890985          2.441208696          1.641240728         0.1692744927        0.08321452212      0.0009342641123       0.002426923616 
18 1          2.405338185          5.030804005           2.14119348          4.462194932         0.8227890849          1.788789007      0.0006039544387       0.001360863733      3.012573537e-16       4.29164798e-17      1.414998885e-31      7.366885979e-34         0.7765279714         0.7116482876         0.5891741249         0.2074533741        0.06482621468       0.001891959352      1.605407909e-05      6.972244142e-13          4.850086945          4.391491643          3.708766009          1.278846454         0.8249409538        0.05032263534        0.01450033544      2.467890676e-05          3.189448432          3.068237186          2.029932038          1.306435477         0.1690214622        0.05652276739      0.0002010004554        0.00256455249 
19 2          2.637157116          3.669025539          2.320147071          3.179899218         0.8686153111         0.9349731142      0.0006337076267      2.503644827e-05      6.934553805e-17      2.151694213e-23      6.773981932e-33      8.999135625e-46         0.9295211366         0.8501360165         0.6811432592         0.2770577375         0.1504188311       0.001749318617       0.004936348161      1.660986878e-16          3.737945859          3.312309322          3.037675515         0.7745002791         0.7068919319       0.003494513783        0.02486855675      1.715291677e-07          1.265047673          1.168124909         0.9396954372         0.3595487301        0.08051464867      0.0004519673505      1.060671755e-05      8.558573078e-10 
20 2          2.394673835          3.163423462          2.158586943          2.691096152          0.953620601         0.6831171167       0.001083865967      4.245323797e-06       2.19548631e-16      8.725059506e-28      5.504365397e-32      1.486633586e-54           1.38289275          1.271087816          1.037835666         0.3808714197         0.1107280078      0.0001130339591      1.332743684e-05      1.563507006e-24          3.158785459          2.792983513          2.554465426         0.6698814505         0.6822314903       0.004420549474        0.02576376751      4.423155227e-13         0.8370645924         0.7561886542         0.6604600858          0.194378453         0.0910458612      5.966004022e-05      6.704801447e-05      1.667416363e-15 
21 2          2.742855406          3.625852213          2.426375577          3.113653621         0.9503012248         0.8498627598      0.0007362806531      1.185453535e-05      6.486686611e-17       3.94078235e-25      5.092976789e-33       3.13499747e-49          1.063544177         0.9841895658         0.7525802362         0.3474265281         0.1494774201       0.002398518077       0.005357869264      3.321640563e-12          3.726814311          3.296449628          3.038105665         0.7613039203         0.7109064179       0.004182789028        0.04119086149      9.119626389e-07          1.102429146          1.011832526         0.8307921689         0.3000467515        0.09040903232       0.000272300509      0.0002976524614      4.066633578e-17 
22 2          2.412599443          3.094510309          2.172099076           2.62914144         0.9625974151          0.642662223       0.001571252075      1.900239762e-06      8.760336104e-15      4.629802012e-29      1.141127189e-28      5.101716873e-57          1.270767995          1.171238054         0.9332110577         0.3741462413         0.1328184831      0.0003351399596      0.0001021083993      3.468210296e-20          3.141615685          2.770869647           2.56187577         0.6410832572         0.6697282532       0.002961816897         0.0304667944      1.230889577e-08         0.8197633546          0.738601861         0.6517474889         0.1849794649        0.09288970237      0.0001199232444      1.985019427e-06      5.643787649e-18 
23 2          2.617217331          3.672178616          2.317753092          3.177209907         0.9245969557         0.9201934495      0.0007515602957      3.473118536e-05      3.153502288e-17      3.238255806e-22      9.222060412e-34      1.978379056e-43         0.9364533475         0.8621861632         0.6687547523         0.3006815131         0.1582740401       0.005061519091       0.003869064463      1.845128314e-16          3.707187675          3.288478751          2.997751681         0.7849580031         0.7044756786        0.00418037386        0.03050633145       3.62028269e-05          1.199147146          1.105052074         0.8954011281         0.3357300771        0.08317596206      0.0006821441118      4.550440042e-05      3.607686452e-10 
24 2          2.525604764          3.537568738           2.26003403          3.049234887          0.971715148         0.8565877505       0.001409560534      1.078107346e-05      1.609483988e-15      1.812280513e-26      3.210462976e-30      4.789520954e-52          1.126317831          1.047418445         0.7995615587         0.3637561138         0.1157899624       0.001130015693      8.212948185e-05      3.341509897e-18          3.701650293          3.289460536           2.97149715         0.8092834867         0.7139645368       0.007783897252        0.03435008077      8.290414505e-06          1.116542263          1.021845148           0.85129675         0.2929192981        0.08974325999      0.0007329812955      0.0001026998536      1.674965647e-13 
25 2          2.532559287          3.374879092          2.237497313          2.886366081         0.8848989965         0.7547260356       0.000605766064      6.863820571e-06      1.004389886e-17      8.841631828e-27      9.222577114e-35      9.755366989e-53         0.9310192044         0.8570721037         0.6660297189         0.2962995012         0.1489205277       0.001772296504       0.004798111615      3.358473469e-13          3.316629019          2.928129071          2.706407138         0.6743851988         0.6752047767       0.002465108016        0.03042813247      6.007135989e-08          1.012157945         0.9196087711         0.7874391757          0.247721345        0.09557507674      0.0002723386689      6.094693658e-06      1.032070306e-16 
26 2          2.224226426          2.756689655          2.013296717           2.31225072         0.9179256856         0.5072174437       0.001232881483      9.352135175e-07      1.208198562e-15      8.266456739e-31       2.05628142e-30      1.145444282e-60          1.224456013          1.128866331         0.9111326777          0.345841024          0.089925393      5.305452056e-05      5.930814613e-06      1.866621224e-27          2.615141338          2.285837454          2.166053666         0.4964489032         0.6376347971       0.002200494394         0.0348091196       1.36460211e-13          0.592032288         0.5311337887         0.4748752441         0.1288786506        0.07599727782      2.143671456e-05      2.528106753e-06      1.118993739e-18 
27 2          2.696442133          3.688991132          2.372871558          3.172223078         0.8771780651         0.8890383804      0.0003335852691       3.27490965e-05      1.281010584e-18      2.060135959e-22      2.478912848e-36      8.058258426e-44         0.8617452478         0.7919796198         0.6165952693         0.2746524857         0.1454142294       0.002123128001       0.006311203435      1.094161134e-08          3.704883263          3.262751798          3.050149988         0.7231801255         0.7446359957       0.002936538711        0.04030373066       1.46912562e-07          1.168571222          1.074613728         0.8749631382          0.324632402         0.0952537682      0.0008704595408      1.943406111e-05      2.153695105e-09 
28 2          2.285620913          3.161924185          2.052134351          2.693459307         0.8822910897         0.6927799364      0.0008483640178      6.755903994e-06      1.385821146e-16      4.535666573e-26      2.380491469e-32      4.412506473e-51          1.082755529          1.001052944         0.7917755444         0.3222274132        0.09335364775      0.0002129079272      0.0002239513533      3.275230026e-23          3.109793277          2.742690478          2.538571729         0.6322747893         0.6660156118       0.003243152175        0.02078089774      3.367998833e-10         0.8586881079         0.7784724384         0.6697540129         0.2082895636        0.09209411346      0.0001279312161      9.488073724e-06      9.697289928e-17 
29 2          2.814881941          3.819075527           2.47415081           3.31306014         0.9093942737         0.9864885305      0.0004332849522      1.744449343e-05      2.012880028e-18      1.018863737e-25      3.227651413e-36      1.496357341e-50         0.9491152936         0.8733244977         0.6762942552         0.3056756513         0.1596110879        0.00221157459       0.006416233725       1.07845997e-12          4.047501948           3.58535359            3.2978779         0.8288699821          0.754236958       0.004885213741        0.02442113149      1.772094599e-05          1.321278012          1.223112732         0.9723068412          0.386016606         0.0836113623      0.0007250845484       2.85769047e-05      9.171908763e-12 
30 2          2.225198902           3.05467489          1.991371631          2.590451147         0.8329038774         0.6277881015      0.0005415776444       2.69798863e-06      1.405807773e-17      7.866225724e-28      2.860169748e-34      1.413604628e-54         0.8819342451         0.8173877378         0.6344741395         0.2750574909        0.08965058267      0.0005338946084      0.0003084710598      7.654194745e-18          2.902545394          2.542896823          2.404469044         0.5496511821         0.6538911628       0.001360349552        0.03563311333      9.164517839e-09         0.7957592644         0.7189716022         0.6270243546         0.1859135274        0.08876453728      0.0001030660313      9.940929896e-06      7.485055495e-19 
31 2             2.767559          3.785123202          2.426524805          3.284593498         0.8788918005         0.9934091204      0.0003916682692       6.78806497e-05      2.895893297e-18      5.444718209e-21      9.485048356e-36      5.371709723e-41         0.8788077355         0.8100642473         0.6253083382         0.2839306399         0.1390745956       0.002027221309       0.004577299649      1.172582691e-09          3.845718763          3.410983441           3.12083687         0.8024108026         0.7158673585       0.008955446583        0.02455971916      2.318122197e-05          1.255249497          1.163043136         0.9217524793         0.3693728374        0.07808155869       0.002279436279       7.07889531e-06      1.861777074e-08 
32 2          2.325774783          3.140322796          2.070169369          2.677789587         0.8476217449         0.7150011401      0.0007278689509      5.775359127e-05      2.383195154e-16      5.444326476e-21      8.863087745e-32      5.371709691e-41         0.9193114563         0.8540794899         0.6598752474         0.2880165439        0.07950243656       0.000512037437      0.0002551676663      7.965007192e-25          3.016337746          2.662108347           2.45245888         0.6237197346         0.6452694192       0.003674770539        0.02985957922      5.918870833e-11         0.8327426432         0.7569530739         0.6445619977         0.2077512342        0.08566069541      0.0004629681881      0.0001614250184      9.699362186e-14 
33 2          2.751444684          3.684760862          2.417014363          3.189025722          0.911497485         0.9281738789      0.0006671881084      2.319663111e-05      5.376699943e-17      6.283709812e-24      4.425157287e-33      7.726268091e-47          1.051920975         0.9568050378         0.7766239346         0.3076844681         0.1951792186       0.002476895799        0.01059486374      7.484066573e-19          3.825096284          3.392959137          3.095999641         0.8065707569         0.7317840382       0.005705180661        0.02037212028      2.722762544e-05          1.217071203          1.122661589           0.90547352         0.3445967157        0.08420949021      0.0006702456481      1.952208354e-05      4.381200634e-11 
34 2          2.170536177          2.949222576          1.924881226          2.507054935         0.7514457665         0.6446826218      0.0004833219987       1.01611364e-05      6.072030048e-17      6.915360324e-26      5.867211366e-33      7.957941916e-51         0.8693120071         0.7974130856         0.6507845693         0.2416127261        0.08820114194      9.230083309e-05      6.959453252e-05      4.637520824e-20          2.634701289          2.321772794          2.158812061         0.5256673929         0.5598931471       0.001645402981        0.01470099456      6.040429161e-10         0.7262444529         0.6584501994         0.5649395188          0.177854423        0.08225727802      4.563614242e-05      1.995172245e-05      4.549671034e-19 
35 2          2.722297408          3.765170984           2.39843343          3.263418904          0.902768629         0.9477181897      0.0004386511857      9.237591688e-06      1.757163149e-18      6.118119332e-27       1.97569318e-36      3.927781717e-53         0.9848243076         0.9057408582         0.7079182303          0.309516868         0.1524888626       0.001917873066       0.006502741136      7.015268201e-11           3.88236405          3.440592632          3.161946059         0.7966092436         0.7214439529       0.004532904852        0.01742121102      5.826375713e-07          1.309499175          1.203116869         0.9857248368         0.3576490529        0.09969506958      0.0004144609842      1.938292624e-05      3.550108567e-12 
36 2          2.308350257           2.97419341          2.067290941            2.5223934         0.8833904253         0.6176870584      0.0007948510558      3.377435211e-06      5.080467674e-17      3.880803104e-28      2.620139017e-33      2.563887436e-55          1.179793893          1.080364339         0.8867222394         0.3238864742         0.1255375888      8.798072854e-05      0.0001796532029      6.177631177e-26          2.873918655          2.527184462           2.34951459         0.5803517358         0.6652080707       0.002928613084         0.0251010876       4.15121716e-12         0.7646982783         0.6875026907         0.6107687277         0.1693624425        0.09211245015      4.026187315e-05      9.219975436e-06      8.869670911e-16 
37 2          2.728298379          3.823236334          2.422059302          3.299528098          0.981323223         0.9423605671      0.0009031215859      1.201202287e-05       2.94849154e-16      3.013958531e-26      1.266133313e-31      1.641225088e-51         0.8840038627         0.8333653664         0.5842266865         0.3377230122         0.1110427769       0.005446043315       0.004306694748      4.909020119e-06          3.885437841          3.437610684          3.158389405         0.8050587202         0.7430700357       0.008745780932        0.05675472528      4.397916164e-06          1.272834973          1.167855486         0.9590607994         0.3468720359         0.1085815951      0.0003435258956      3.155874284e-05      1.206107014e-13 
38 2          2.453717531          3.208935373          2.212738341          2.741132479          1.001132326          0.748615029       0.001560432506      2.512235732e-05      7.473057973e-16      1.210695613e-23      3.499261854e-31      2.640516984e-46          1.252801175          1.166769777         0.8944197985         0.3976169596        0.09684749644      0.0006010141395      3.798489165e-05      7.104610189e-17          3.316079537          2.949926251          2.646261223         0.7447064423         0.6630490473        0.01147161183        0.02755115302      2.271566159e-05         0.8857813023         0.8060073567         0.6821301431         0.2248864804         0.0935828157      0.0003239568126      5.144468407e-05      7.588255927e-11 