ITEM: TIMESTEP
0
ITEM: NUMBER OF ATOMS
54
ITEM: BOX BOUNDS xy xz yz pp pp pp
-2.6732977382222696e-02 1.9174382766165152e+01 2.9506541316800546e-05
0.0000000000000000e+00 1.1540010645371973e+01 -2.6732977382222696e-02
0.0000000000000000e+00 2.9999991154072013e+01 1.9850802815995338e-05
ITEM: ATOMS id type c_1[1] c_1[2] c_1[3] c_1[4] c_1[5] c_1[6] c_1[7] c_1[8] c_1[9] c_1[10] c_1[11] c_1[12] c_1[13] c_1[14] c_1[15] c_1[16] c_1[17] c_1[18] c_1[19] c_1[20] c_1[21] c_1[22] c_1[23] c_1[24] c_1[25] c_1[26] c_1[27] c_1[28] c_1[29] c_1[30] c_1[31] c_1[32] c_1[33] c_1[34] c_1[35] c_1[36] 
1 1          2.168827562          4.892334066          1.893366668           4.33980358         0.6169113494          1.738720964      0.0001100089579       0.001814004396      7.635143151e-20      1.997529404e-15      1.017827967e-38      3.821910346e-30         0.4766695955         0.4380317951         0.3596778527         0.1289995794        0.03275734285      0.0001914760085      3.576701129e-05      2.476851542e-12          3.769487402          3.390819828          2.943626917          0.919931697         0.6464599744        0.02025856834       0.006070388302      2.408210831e-06          2.935486979            2.8391093          1.830955253          1.244703603         0.1300756297        0.05270793121      9.233610575e-05       0.002390174216 
2 1          2.305268866            4.9800047          2.021118606          4.431830545         0.6644894094          1.802538906      0.0001031576571       0.001711450662      7.634576116e-20      2.700180466e-16       1.01782796e-38      4.248869905e-32         0.5539434681         0.5069905572         0.4227853528         0.1447341438        0.04275564503      0.0004724817224       0.000235962515      1.023174252e-12          4.178291095          3.762453706          3.258781262          1.026225236         0.7149073135         0.0300416593       0.004561311025       1.00993187e-05          3.206692995          3.094365094          2.024163136           1.33251693         0.1406767535        0.05943367761       0.000434246988       0.005635510353 
3 1          2.281009137          4.955114695          1.995092718          4.415723029         0.6352724156          1.849074014      6.098089715e-05       0.001896102997      5.594432653e-21      2.927180531e-16      5.669749749e-41      5.876083619e-32         0.5415909686         0.4888995795         0.4265696995         0.1269858237        0.06610652693      0.0005689344022      3.157233657e-05       9.69067151e-15           4.07578509          3.670670694          3.173187581          1.005933675         0.6968171353        0.02299413723       0.004940822882       5.17367819e-07          3.243009409          3.153882815          1.985427854          1.421526981         0.1256472463        0.07453032377       0.000768221427       0.009625765825 
4 1          2.153282234          4.969929792          1.891675919          4.424170343         0.6741950372          1.829735659      0.0003942866926       0.002339062881      2.985599056e-17      1.387991033e-14      1.433273044e-33      2.797975085e-28         0.4665403308         0.4335080362         0.3371342548         0.1434198197        0.03326967352      0.0006122624075      3.164153241e-05      2.631715586e-09           4.02150385          3.650382079          3.067201875          1.067559786         0.6258254365        0.03480496143       0.004524343807      5.721082827e-07          3.230431071          3.131574847          1.997706927          1.391002498         0.1363995698        0.06442457735       4.60263383e-05       0.002000938089 
5 1          2.104256597          4.820062877          1.837149819           4.27899987         0.6159074958          1.693687073      0.0003446939518       0.001628674022      2.985039628e-17      6.793350737e-15      1.433272988e-33      6.881918476e-29         0.4153356844         0.3798042536         0.3141718078         0.1120324953        0.04338231009       9.76052176e-05      3.886353531e-05       1.35973688e-19          3.725103321          3.345892637          2.925828954         0.8909409815         0.6434153406        0.02479572613       0.003105841289      2.856801026e-07          2.825775766           2.72294079           1.78497562          1.169328165         0.1220959923        0.03487388474      0.0003427760258      3.293332046e-05 
6 1          2.399450213          4.799031397          2.100744419           4.27069913         0.6586052873          1.746495638      2.130114917e-05       0.001361754441      5.830901975e-24      1.420072157e-16      6.520026488e-47      2.436015361e-32         0.5403112346         0.4842098775         0.4296747458         0.1221523885        0.08513094413      0.0002633036481      0.0002529842897      6.051097962e-12          4.164042507          3.746471273          3.268361611         0.9955082752         0.6583469078        0.01587337116       0.004001069531       1.13848431e-07          2.887236939          2.802350418          1.783216291          1.246787521         0.1146842511        0.05642259263      0.0005237134211        0.01833750047 
7 1          2.647846331          4.938135325          2.356434486           4.36654819         0.9039067484          1.714116842      0.0005369406364       0.001472427659      2.502019677e-17      8.567751289e-16      8.183742362e-34      8.475108834e-31          0.860196102         0.7928951225         0.6391540707         0.2452938169        0.07208164946       0.004093722027       4.87365799e-05      7.164024808e-10           5.01560083          4.566596747           3.79062331          1.371676864         0.7641931771        0.04850651067        0.00750958762      3.643673859e-06          2.934212685           2.82053178          1.875436865          1.191308189         0.1423580088        0.04743550274      6.527331404e-05      0.0006763316087 
8 1          2.111578059          5.089827279          1.839893556          4.512915318         0.5994470539          1.790486043      9.473625383e-05       0.001635341675      3.010539895e-20      1.734142049e-15      1.602395714e-39      4.475238576e-30           0.44548594         0.4006103832          0.348301867         0.1077234449        0.07356523469      0.0007388816603       0.000586092982      9.346548683e-11          3.770191398          3.400777432          2.927290492         0.9394714333          0.620685767        0.02362418889       0.008462588623      0.0005254620118          3.284867614          3.147652921          2.125787622          1.305342682         0.1805781895        0.05532173988      0.0004556107593       0.004853598765 
9 1          1.945992825          5.069370102          1.685499974          4.513445652         0.5261509617          1.835305888      9.321956451e-05       0.001326045985      3.010473849e-20      9.108990245e-17      1.602395689e-39      8.091578226e-33         0.2902677301         0.2653988507         0.2177987039        0.08051822548        0.03589099701      0.0001539747889      7.372351126e-05      3.285584267e-21          3.482807354          3.127637056          2.734527386          0.834633183         0.6120624325        0.02477479795       0.008728631928      0.0004369737512          3.421598564          3.285449496          2.196862867          1.377524147         0.1687101548        0.05278340029      0.0003511511897       0.003287428975 
10 1          2.186595363          5.057567829          1.896470427          4.514865106         0.5716347335          1.917969151      2.485527254e-05       0.002627792062      9.921048212e-24      1.028950004e-14      1.666088177e-46      1.511716013e-28         0.4404768159         0.3917652207         0.3544033739        0.09509836507        0.08219187712      0.0002431172218       0.000402735562      2.405113796e-10          3.871090863          3.488585675          3.019351047         0.9483195824         0.6213453202        0.01978872295       0.003997662517      6.772771136e-07          3.501895966          3.403236135          2.148169521          1.530841346         0.1477864041         0.0822197162      0.0002738631796        0.01017701869 
11 1          2.479539079          4.982345667          2.195481325          4.397472911         0.8233267012           1.68578708      0.0004077107881       0.001113890189      4.878043313e-18      8.090417638e-17      1.998076384e-35      5.017182902e-33         0.7790604606         0.7150000959          0.587272744         0.2124687335        0.06611487432       0.002558053348      0.0001616529361      5.234772627e-12          4.614562517          4.178247753           3.53801496          1.203052818         0.7507619823        0.03582698985       0.006434809493      1.281727002e-05          2.894541964          2.776102483          1.862846359           1.15940264         0.1492676392        0.03858416426      3.203829961e-05      0.0009001887683 
12 1           2.54933026          5.050744123          2.267290659          4.484524677         0.8660857923          1.816154926      0.0005176153526       0.002093367669      2.455348546e-17      3.150811557e-15      8.146110266e-34      7.652985817e-30         0.8382989906         0.7734312319         0.6260097961         0.2351083028        0.05115154514       0.002302406151      0.0001576375611      9.698497456e-14          4.925096315          4.498483134          3.685752752          1.388429268         0.7249904575        0.04699000611        0.01016980483      8.114542835e-07             3.264566          3.150120925          2.061039705          1.356193533         0.1388657548        0.06294255413      5.638030961e-05      0.0007334549795 
13 1          2.184760301          5.036017219          1.910094428          4.472389496         0.6324186895          1.801091155      0.0001223302607       0.001611128694       2.66146903e-20      8.055934222e-16      1.045893307e-39      7.355883602e-31         0.4526836822         0.4132709378         0.3431865418         0.1212015861        0.05146644253       0.000275639663      7.588007959e-05      3.957239782e-10          3.976289708          3.583946621          3.096579923         0.9807147988         0.6509436785        0.02528619172       0.004362035467      1.313039344e-05          3.219246532          3.103334473          2.033258234          1.336008082         0.1550793515        0.05541280735       0.002531820837       0.003937891328 
14 1           2.14763771          4.939027508          1.873772032          4.396290096         0.6025807307          1.786057134      0.0001028714261       0.001456434745      2.434953012e-20      1.785929545e-16      1.034809934e-39       2.24594321e-32         0.4160363533         0.3763979799         0.3218504174         0.1044201484        0.05991637039      0.0001441692631      8.863501905e-05       6.90320371e-21          3.881136158          3.484090685          3.054215354         0.9216237742         0.6738282264        0.02561221721       0.005406800403      1.219222688e-07          3.142095411          3.033107256          1.976727808          1.312276192         0.1390890091        0.05575904248      0.0002301848594       0.001376374738 
15 1          2.222512168           5.06952531          1.951463371          4.498150163          0.684496579          1.778908038      0.0002421951889       0.001757103309      3.197751196e-18       8.71796491e-16      1.695488853e-35      7.151344196e-31         0.5320148975         0.4852520215         0.4038525595         0.1419339356        0.06288706933      0.0004939790499      7.530773532e-05      1.033597576e-08          4.178985962          3.776534685          3.228222235          1.060021115         0.6671932555        0.02594408573       0.005794994175      6.812717023e-05          3.214358215          3.083789753          2.066490699          1.290760741         0.1626425633        0.04369869619      0.0003353157044      5.191642413e-05 
16 1          2.370569126           5.07432646          2.095756332          4.522133268         0.7675072125          1.875193994      0.0003295656962       0.001989294691      3.371379622e-18      9.569513421e-16      1.700705354e-35      8.901007857e-31         0.6519245939         0.6010019562          0.485136762         0.1847979988        0.04995564018       0.001968319069      8.190342999e-05       4.40586711e-11           4.59677226          4.191442741          3.458836938          1.274384066         0.6947148346        0.04612702744       0.006418201414      6.341931278e-06          3.435289799          3.324279074          2.149222397          1.450337906         0.1277771029         0.0724709264      0.0001593455356        0.00103942179 
17 1          2.473060586          5.022618589          2.188005139          4.442636978         0.7732096887          1.755838296      0.0001645182366        0.00134361491      1.762767201e-19      2.046478432e-16      5.217605216e-38      5.716141551e-32         0.7121713632         0.6511802925         0.5441292017          0.185810049        0.06060680689       0.001240791223      0.0001532912564      3.644587422e-14          4.634729325          4.186510077          3.579170895          1.178391603         0.7635441072        0.03267949056       0.009009780711      1.662346494e-07          3.059962624          2.948351861          1.937480008          1.264609701         0.1528615348        0.05394485463       0.001619959757       0.007414130695 
18 1          2.250151256          4.970264508          1.974379177          4.424079828         0.6697977715          1.823247387      9.676249679e-05       0.001727374719      4.913468466e-21      2.235127943e-16      2.212461297e-41      2.278219976e-32         0.5730593754         0.5206113858         0.4425935317         0.1442263179        0.06440714262      0.0009443528166      0.0002923247964      3.893491803e-12          4.106111759          3.718682221          3.155715387          1.061721282         0.6417786003        0.03163233229       0.005966667137       5.47657931e-07          3.202003727          3.104886035          1.984451653          1.374348074         0.1273731988        0.06430996952        7.0343616e-05         0.0125614091 
19 2          2.621651751          3.573464487           2.32033294          3.078348054         0.9370751432         0.8399806446       0.001012044705      4.822517165e-06      5.006488345e-16      3.858583547e-28      3.749155206e-31      2.346351823e-55         0.8992150631         0.8409386221         0.6110882699          0.323440841         0.1259013669       0.003542347148        0.00203190064      2.172878913e-17          3.549303971          3.137396845          2.889219081          0.729966877         0.6969809287       0.003356350315        0.04486888182      3.298311669e-06          1.085310693         0.9979560605         0.8178608251         0.2951526021        0.07244842182       0.000205925766      2.079516175e-06      3.314241979e-17 
20 2          2.372238586          3.120363136          2.132744169          2.649941854         0.9280677683         0.6421695908       0.001748640626       1.64123423e-06      1.391840829e-14      3.140545834e-30      2.798297795e-28       1.72892706e-59          1.178785277          1.090878435         0.8579188779         0.3551206359         0.1068693036      0.0001406170866      2.809082036e-05       1.52584299e-21          3.036479751          2.666606747          2.496754099          0.597282899         0.6937623368       0.003794179662        0.03237198458       7.46645874e-12         0.7953976278         0.7195552551         0.6259836861          0.186488066        0.08252172729      2.319813548e-05      2.804854856e-06      5.879045051e-21 
21 2          2.780662315          3.435844243          2.460142731           2.96755824         0.9762376551         0.8326888497       0.001017628437      1.353823122e-05      2.147792309e-16      3.400399935e-25      3.718416534e-32      1.531705932e-49          1.194767252          1.104061586         0.8536783045         0.3801395243         0.1618727241       0.001406974732       0.004104917364      2.680013539e-14            3.6856118          3.268274367          2.984735603         0.7760885032          0.710180914       0.007094301572        0.02769088626      5.968317552e-07          1.020119478         0.9383080455         0.7690067394         0.2770799947        0.06441549999      0.0003047507641      1.946267016e-06      1.266088262e-13 
22 2          2.328580734          2.985137818          2.090037301          2.528671563          0.898210159         0.6018004159      0.0008171390441      3.300845028e-06      5.180593487e-17      5.694493468e-27      2.467455486e-33      7.191700928e-53          1.137042752          1.055209888         0.8243026011         0.3460488941        0.08553303871      9.558451066e-05      1.526134301e-05      2.285984558e-23          2.847808414          2.493861618          2.351849297         0.5485691274         0.6719888597       0.003369907817        0.03994282867      4.371923457e-11         0.7043861237          0.637948214         0.5534052678         0.1661759321        0.06899068041      2.207670439e-05      1.823012965e-06      3.991075927e-22 
23 2          2.648132716          3.577528073          2.326920757          3.089889362         0.8487042093         0.8667920049      0.0004990725526       1.01988453e-05      1.978333249e-17      9.404251718e-26      5.476133956e-34      1.741590861e-50         0.9066720541         0.8287676582         0.6652182306         0.2698446244         0.1533578952        0.00188986954       0.002962304764      1.154975247e-11          3.594168924           3.16657201          2.958232804         0.7019778182          0.729891254        0.00203889794        0.02596139296       2.74331642e-06          1.129347187          1.041141816         0.8439760498         0.3151565732        0.07202660988      0.0003640520692      2.864144578e-06      6.781473297e-15 
24 2          2.370784104          3.121665265           2.11871421          2.650737454         0.8913028457         0.6521323478      0.0007864700785      2.757187389e-06      5.285524237e-17      6.224149901e-29      3.167383536e-33      7.510783487e-57          1.030787713         0.9555370176         0.7460158595         0.3161802489        0.09024530664      0.0008008262732      0.0002240770682      1.578139471e-23          2.926309822          2.576559627          2.399503836         0.5822093124          0.627437433       0.002828114473        0.02377852352      3.190372372e-08         0.7630376253         0.6958940568         0.5876241638         0.1933559899        0.06586252318       6.58841349e-05      1.884908074e-06      2.338794921e-21 
25 2          2.479606947          3.686435223          2.172718572          3.190184083         0.8108029455         0.9194094056      0.0003768147676      1.567675568e-05      1.265616815e-18      4.562911577e-25      1.707889511e-36      3.774770172e-49         0.7168167587         0.6615904292         0.5030227682         0.2396562135          0.125341238         0.0019379873       0.004878637222      2.233320783e-19          3.454038307          3.055364744           2.81299685         0.7087037213         0.6746683631       0.003169407612         0.0258230521      6.021728177e-06           1.26972725          1.169073175         0.9520055373         0.3508512191        0.08530466984      0.0003435279071      2.586215692e-06      8.608892084e-15 
26 2          2.344589317          3.067831444          2.121931696          2.604075775         0.9927591309         0.6347124993       0.001894702602      3.760389237e-06      6.943543232e-15      5.695601861e-27      6.884021704e-29      7.191701239e-53          1.200292887          1.122116727         0.8507987133         0.3874416738        0.07096793156      0.0003390451075      3.682843656e-05       2.61540312e-19          3.027889317          2.672006069          2.461257409         0.6281831086         0.6620665197       0.006684683954        0.02775441128      1.355046411e-07         0.7604985466         0.6891719023         0.5961372469         0.1809678322         0.0749931092      6.330716789e-05      1.978020336e-06       2.66180526e-14 
27 2          2.499259424          3.445802374          2.181949733          2.959439472         0.7721308797         0.7860515099       0.000459771848      4.175349415e-06      6.780592728e-17      1.277841655e-27      7.313273104e-33      3.602526868e-54         0.6661691136         0.6115031668         0.4775017894          0.211504419         0.1170805613       0.001890997771       0.004158112888      9.993724227e-21          3.099774536           2.72495463          2.565096679         0.5896729863         0.6436268537      0.0007533680876        0.02083990132      1.557722845e-08         0.9906227902         0.9110167858         0.7468796201         0.2688877106        0.06359322397      0.0001615697111       3.38278186e-06      1.366007772e-16 
28 2          2.383804516          3.058042863          2.142952058          2.597258716         0.9532847534         0.6329195165       0.001366934175      2.114446026e-06      1.542357935e-15      2.712484479e-29      3.448877671e-30      9.305952776e-58          1.197703285          1.118298476          0.855327451         0.3786853716         0.0662065916      5.996303215e-05      6.895567454e-06      6.951484181e-20          2.957094034          2.606373709          2.410161111         0.6056638172         0.6525595529        0.00385002368         0.0306491156      1.108096799e-10         0.7356617059         0.6674542835         0.5757138275         0.1760429043        0.06793183255      3.059509991e-05      1.102581519e-06      1.492287495e-15 
29 2          2.760117007          3.489276941          2.441332631          2.994686466         0.9398289319          0.794640566      0.0004208371479      3.780337458e-06      1.544193002e-18       1.72688101e-28      1.755635077e-36      3.849384176e-56          1.072897513         0.9887057392         0.7725475503         0.3355162361         0.1511854773       0.003056626726       0.005080201662      7.801864435e-10          3.521788735           3.10609644          2.886072136         0.7022071898         0.6988583278       0.002168582834        0.04207284173      3.644133349e-08          1.009486976         0.9254758505         0.7669934804         0.2675065071        0.07380881674      0.0001238803959      2.283080397e-06      1.223106146e-16 
30 2          2.332061486            2.9766387          2.085241643          2.524623397         0.8725325085          0.604752188      0.0006338605005      1.974883967e-06       1.30238338e-17      7.520844143e-29      1.640672297e-34      1.289385087e-56         0.9946839216         0.9240358448         0.7102230904         0.3158022868        0.09630232017      0.0004763463398      0.0002426099598       1.66170548e-16          2.743441223           2.40790148          2.264743244         0.5289391034         0.6092643123       0.002374694623        0.02989830885      1.123392139e-08         0.6780776214           0.61629902         0.5282979669         0.1649029485        0.05953662324      3.668485458e-05      8.088354557e-06      6.905849582e-22 
31 2           2.85858016          3.577432085          2.520639357          3.077709704         0.9641306487         0.8533942847      0.0007805440887      1.320366754e-05      1.345947468e-16      2.834931017e-25      2.742763057e-32      1.400865724e-49          1.027988773         0.9493187545         0.7248553905         0.3403989872         0.1658619509       0.003761378756         0.0069019135      1.223726093e-11          3.776711049          3.346020747          3.068142084         0.7833006553         0.7052508358       0.003161324377        0.03326929663      8.202684446e-06          1.111695613          1.024359558         0.8308879629         0.3100962497        0.07536032131         0.0002367624      5.327704093e-06      5.041141684e-15 
32 2          2.173621909          3.254702261          1.938050973          2.790651015         0.7982243382         0.7759321368      0.0005091494083      3.317868025e-05      1.684847586e-17      1.038909336e-22      4.071851533e-34      2.055152933e-44         0.7922267871           0.73905983         0.5640499573         0.2531036222        0.05366754385       0.000457246061      0.0002453815585      6.959866884e-19          2.964545141          2.621628648          2.402852132         0.6230065089         0.6219806472       0.005413398885        0.02428724272      6.998527488e-09         0.9865001656         0.9035736634         0.7487992313         0.2622901828        0.08241496275      9.666098428e-05      1.181871155e-05      2.216179399e-19 
33 2          2.567124449          3.530337888          2.257799768          3.047815729         0.8545759683          0.854248208      0.0004722391917      8.477278236e-06      5.356263208e-18      1.693984712e-26       2.76541979e-35      4.141560071e-52         0.8931178305         0.8192580002         0.6422587832         0.2801835512         0.1535552059       0.001255920016       0.009026728913      6.039370206e-23          3.489389966          3.084313443          2.852901581          0.703800834         0.6830734821       0.005138715441         0.0219122527      1.731360468e-06          1.120927598           1.02959126         0.8454528599         0.3041026904        0.08288717383      0.0002380518046      9.673299781e-06      1.573318041e-13 
34 2          2.314957732          3.143895598          2.061406657          2.689787853         0.8466705903         0.7114796209      0.0009606011997       7.59036222e-06      1.714185781e-15      8.274508523e-26      4.474939214e-30      1.456830192e-50          1.005517022         0.9262698073          0.740364254          0.293400407         0.1001084981      0.0001542465743      0.0009915795585      4.995557163e-20           2.97364271          2.624725617          2.417494418         0.6163559616         0.6425152094       0.004866286551        0.02729248936      2.633866635e-10         0.8810441038         0.8002621857         0.6860661445         0.2148381759        0.08348783405      0.0001001607812      1.675379525e-06       5.95671725e-17 
35 2          2.548632843          3.578281549          2.231413525          3.087527902          0.800090467         0.8687645187      0.0003040019353      1.134008335e-05      3.068560937e-18      4.254483638e-25      1.546922684e-35      3.759409117e-49         0.7000001291         0.6431091733         0.4989401086         0.2254904168         0.1176485412       0.002205939997        0.01077234567      9.968479198e-19          3.419523772            3.0170524          2.812918443         0.6695544425         0.6728310258       0.001518975493        0.01380314118      5.965370963e-06          1.155452439          1.065887243         0.8613516627         0.3248380458        0.07359532207      0.0002831865394      4.183025531e-06      2.889706097e-12 
36 2          2.441789545          3.119213019          2.197274667          2.647322596         0.9663326275         0.6419078792       0.001628418869      1.761038274e-06      1.012149595e-14      5.421024406e-30       1.51148644e-28      3.684248351e-59          1.321147332          1.217689149         0.9730700973         0.3852708039         0.1311085596       0.000165496765      6.244931557e-05      2.488152692e-21          3.088319395          2.718286571          2.525233173         0.6233360118         0.6882317736       0.004455104237         0.0348802049      7.665620318e-12         0.7887467137         0.7129409549          0.621843466         0.1837620508        0.08422634053      6.409411007e-05      3.288854544e-06      1.468161335e-18 
37 2          2.406063804          3.527043985          2.125091669           3.02710256         0.7988822976         0.8173631229      0.0003306113683      6.733663914e-06      4.135879206e-18      8.631581972e-27      2.679638329e-35      1.393388436e-52         0.7339459669         0.6825993424         0.5200900159          0.238670964        0.07233233517       0.001392236473       0.002256897725      3.824110685e-13          3.293965489          2.904089346          2.707214259          0.647618096         0.6467044167        0.00129796324        0.03333097408      4.694504495e-08          1.100565063          1.007514694         0.8369494781         0.2910624533        0.09185945256      0.0001913696667      2.593781416e-06      1.949353555e-13 
38 2          2.362153598          3.384066356          2.106367188          2.906306628         0.8728218119         0.7834029584      0.0008707958083      7.803505697e-06      1.523923887e-16      1.278708402e-26      1.858536705e-32      1.900477228e-52         0.9667863071         0.8961024023         0.6930691142         0.3040513087         0.1031422972      0.0007352722544       0.001352405847      1.834197789e-18          3.257581558          2.882888067          2.641404223         0.6819373899         0.6591055651       0.004710572714        0.02800806535      5.415019602e-08          1.010154972          0.920987362          0.779567471         0.2543128428        0.08522502692      0.0004093901684      1.487087885e-06      3.557287875e-17 