ITEM: TIMESTEP
0
ITEM: NUMBER OF ENTRIES
4836
ITEM: BOX BOUNDS xy xz yz pp pp pp
-0.026733 19.1744 2.95065e-05
0 11.54 -0.026733
0 30 1.98508e-05
ITEM: ENTRIES c_2[1] c_2[2] c_2[3] c_2[4] c_2[5] c_2[6] c_2[7] c_2[8] c_2[9] c_2[10] c_2[11] c_2[12] c_2[13] c_2[14] c_2[15] c_2[16] c_2[17] c_2[18] c_2[19] c_2[20] c_2[21] c_2[22] c_2[23] c_2[24] c_2[25] c_2[26] c_2[27] c_2[28] c_2[29] c_2[30] c_2[31] c_2[32] c_2[33] c_2[34] c_2[35] c_2[36] c_2[37] c_2[38] c_2[39] 
                   0                  153          2.642810767                    0        -0.0324057794                    0      -0.003877924728                    0     -0.0001910755759                    0     -4.837403107e-18                    0     -4.879543982e-80                    0    -5.343117408e-158                    0                    0                    0                    0                    0                    0                    0                    0      -0.001898205469      -0.001490567145      -0.001738010324     -0.0001759048724      -0.001152946989     -4.529863196e-10     -0.0001274438337      1.184786708e-53      -0.003678666215      -0.003065246692      -0.003345670897     -0.0003639472899      -0.001459226878     -6.095418762e-09      4.850788823e-06      -9.54739213e-39 
                   1                   26         -5.723352306                    0         0.3348709654                    0        0.04007323451                    0       0.001974513921                    0      4.998817736e-17                    0       5.04236477e-79                    0     5.521406729e-157                    0                    0                    0                    0                    0                    0                    0                    0        0.02554638895        0.02050802603        0.02381286959       0.001893586846        0.01350755819       1.97739814e-09      0.0004361054441      5.847153035e-54        0.03102031125        0.02572342941        0.02817177596       0.003117625575        0.01300196377      2.888093386e-08      3.119136912e-05      5.576859923e-38 
                   1                    2          2.405258272                    0        0.07734368061                    0       0.009255539509                    0      0.0004560448348                    0      1.154555045e-17                    0      1.164612912e-79                    0     1.275255136e-157                    0                    0                    0                    0                    0                    0                    0                    0       0.007125829132       0.005473954546       0.006795821722      0.0003603432185       0.004749736629        4.8266136e-10      0.0005058470226     -3.319623669e-55       0.006823726954       0.005855567897       0.006016345848      0.0008832787523       0.001847094439      1.431469767e-09     -1.606195028e-05      1.078609032e-38 
                   0                  156          5.946123869                    0        -0.2957892098                    0       -0.03749327321                    0       -0.00234839507                    0     -4.145589498e-16                    0     -1.322341476e-74                    0    -3.265848832e-148                    0                    0                    0                    0                    0                    0                    0                    0       -0.03015753093       -0.02324193606       -0.02869679174      -0.001594680468       -0.01952706462     -1.823116619e-08      -0.002744384527     -2.467827999e-38       -0.02760312964        -0.0236921697       -0.02404973842      -0.003897115055       -0.00775926972     -2.017386071e-07     -3.008578189e-07     -7.236616169e-37 
                   1                   29         -4.201660599                    0         0.3290302947                    0        0.04170680445                    0       0.002612310037                    0      4.611474959e-16                    0      1.470947523e-74                    0     3.632868164e-148                    0                    0                    0                    0                    0                    0                    0                    0        0.03151117587        0.02409974023        0.02992759174         0.0017315307        0.02099174491      5.125788971e-08       0.003769998794      1.477175568e-38        0.03138210602        0.02692320834        0.02740756474       0.004356362848       0.008752245372      1.495115373e-07      5.264982978e-07      5.945564226e-36 
                   1                    2          2.990534637                    0        0.05810896357                    0       0.007365702246                    0      0.0004613515267                    0      8.144175011e-17                    0      2.597792282e-75                    0     6.415889576e-149                    0                    0                    0                    0                    0                    0                    0                    0       0.007574715765       0.005103877142       0.007446685514       0.000140191879       0.006868628962      9.343836028e-09         0.0042140511      2.483740312e-39        0.00492449576        0.00445444794       0.003963095102       0.001055091768      0.0002819173013      4.560230808e-08      1.082056868e-08     -1.325235937e-36 
                   0                  188        -0.3812776513                    0         0.5789004193                    0         0.2212951678                    0          0.236850828                    0       0.001478008967                    0      3.066839431e-16                    0      1.219309597e-32                    0                    0                    0                    0                    0                    0                    0                    0          0.216445052         0.2304259784        0.08597115832         0.1512940851       -0.01730674961        0.01895980318     -2.085398938e-05       1.02209922e-07         0.7413335137         0.7381375631         0.4248861915         0.3621580321        0.00261800516        0.04675281317      -0.000406888892       0.002354536513 
                   1                   45       -0.01481671179                    0        0.02694526598                    0        0.01030031583                    0        0.01102436333                    0      6.879481065e-05                    0      1.427478741e-17                    0      5.675349386e-34                    0                    0                    0                    0                    0                    0                    0                    0       0.009463941414        0.01102891143       0.003920106232       0.006241323042      -0.009425626351      0.0005632636913     -1.425672538e-05     -2.436368996e-06       -0.04731480946       -0.02692616205        -0.0744396204        0.03154837708       -0.02933767984        0.00405328786      -0.001701734588        0.00101388885 
                   1                    2          2.476446698                    0         0.2996719457                    0         0.1145550276                    0         0.1226075264                    0      0.0007651019211                    0      1.587571383e-16                    0      6.311843403e-33                    0                    0                    0                    0                    0                    0                    0                    0         0.1843407839         0.1669785374         0.1302258275        0.06334012398        0.07556906846        0.01159331624      4.268670305e-05      1.351395735e-06         0.4660987968         0.4435247869         0.3113069461         0.1758089514        0.02681995131        0.01646772106      0.0008222653354       -0.00230806911 
                   0                  194         -3.510287527                    0         0.2143023416                    0        0.02421751277                    0      0.0009284944202                    0      3.078351488e-18                    0      8.211986802e-84                    0     3.314880261e-166                    0                    0                    0                    0                    0                    0                    0                    0       0.006512754985       0.005227748206       0.006095432111      0.0004556092333       0.003490710698      1.064272543e-11      5.587681523e-05      1.467813594e-85        0.01779455199        0.01378954712        0.01659321046       0.001316803432        0.01096252015      2.639020407e-08       0.002488636609      2.289890454e-43 
                   1                   54         -1.468062703                    0        0.06010774459                    0       0.006792553274                    0      0.0002604250847                    0      8.634192403e-19                    0      2.303306635e-84                    0     9.297610775e-167                    0                    0                    0                    0                    0                    0                    0                    0       0.001873446008       0.001532788901       0.001736916453      0.0001489808957      0.0008669522938     -1.286145272e-12     -4.558920248e-06     -2.119514987e-85       0.004777177998       0.003548978109       0.004494076946      0.0003107766495       0.003348279855      6.907429871e-09       0.001438792497      4.225717447e-43 
                   1                    2          1.659294194                    0        0.08016377696                    0       0.009059011103                    0      0.0003473206081                    0      1.151514632e-18                    0      3.071846408e-84                    0     1.239992619e-166                    0                    0                    0                    0                    0                    0                    0                    0       0.002754323839       0.002171627361       0.002605586593      0.0001623332413       0.001647992145       1.52148848e-12       5.46019706e-05     -9.084579296e-86       0.006808272592       0.005380639057       0.006311768863      0.0005438577844        0.00388822726       9.01070549e-09      0.0004762329538      4.121438351e-43 
                   0                  157          2.757560256                    0        -0.1585160834                    0       -0.06207267202                    0       -0.06850912166                    0     -0.0005630705352                    0     -3.930557362e-16                    0     -7.116912636e-32                    0                    0                    0                    0                    0                    0                    0                    0      -0.003593333262       -0.01536942701        0.02280775291       -0.03065365837        0.02877262177      -0.004134970843     -9.404333101e-10     -3.097734504e-07        -0.2916296708        -0.2743863788        -0.2011582011        -0.1019472784       -0.02843821178      -0.008325342007     -1.282930791e-05       0.002118492482 
                   1                   30          -1.88318526                    0         0.4634276933                    0         0.1814717761                    0         0.2002889772                    0        0.00164615775                    0      1.149113132e-15                    0      2.080656003e-31                    0                    0                    0                    0                    0                    0                    0                    0         0.1921819028         0.2066712501        0.07469048076         0.1329017645       -0.04735176984       0.005867121121     -7.372748356e-09     -4.176737787e-07         0.5536920868         0.5661519078         0.2710729356         0.3227491897       -0.01225747621        0.02522214852     -3.681494046e-05       0.001359856291 
                   1                    2          2.019609692                    0          0.404457039                    0         0.1583796961                    0         0.1748024294                    0       0.001436686022                    0      1.002889775e-15                    0       1.81589486e-31                    0                    0                    0                    0                    0                    0                    0                    0         0.3984051576         0.3441383852         0.3417702783        0.06453854816         0.1175154639       0.005998100687      8.599679675e-09      8.090720834e-07         0.5579153676         0.5548400463         0.3063392149         0.2863824041        0.02304389714        0.01990052705      3.674333212e-05       0.001011697849 
                   0                  171        0.07486498141                    0           0.44062321                    0        0.09964801485                    0        0.04042230146                    0      4.743842202e-08                    0      4.198739336e-37                    0      5.857752041e-74                    0                    0                    0                    0                    0                    0                    0                    0         0.1232161021          0.107042983         0.1043427477        0.02074010196        0.03231304586     -2.025156827e-06     -9.383523576e-06      3.683000555e-36         0.2400695978         0.2155008717         0.1917003978         0.0536174789        0.03333725073      0.0006263876525      1.455493487e-06      2.010224447e-13 
                   1                   53         -3.352191025                    0         0.7588090215                    0          0.171606513                    0        0.06961232708                    0      8.169497606e-08                    0      7.230761372e-37                    0      1.008779155e-73                    0                    0                    0                    0                    0                    0                    0                    0         0.1466932966          0.130095917         0.1190779298        0.03049128032        0.02875204391      7.365737045e-06      5.054494649e-06     -1.457527939e-36         0.4478025778         0.4001612951         0.3630055028        0.09389006996        0.06223532552       0.001138670884      -7.97842154e-07      2.230754046e-13 
                   1                    2          2.665777974                    0         0.2383782212                    0        0.05390981679                    0        0.02186856275                    0      2.566430093e-08                    0      2.271528125e-37                    0      3.169058007e-74                    0                    0                    0                    0                    0                    0                    0                    0        0.08745063033        0.07168618489        0.07983763934       0.008378620458        0.04392019034      2.858430589e-07      1.356303033e-05     -1.262931531e-37         0.1456390082         0.1291426539         0.1172981474        0.03148781157        0.03208488488      0.0002418107886      5.324781633e-07      4.794341136e-13 
                   0                  150          6.025902159                    0        -0.8757623368                    0        -0.2011554592                    0       -0.08474612178                    0     -1.383343879e-07                    0     -5.196164104e-36                    0     -4.411685574e-72                    0                    0                    0                    0                    0                    0                    0                    0        -0.2834735929        -0.2522962958        -0.2307381192       -0.05815061589       -0.04525633427     -6.336513998e-05     -5.276107871e-08     -2.679587806e-25        -0.3729504554        -0.3475018217        -0.2702146669        -0.1139313396       -0.01727908805      -0.001422094722      5.294126869e-07     -1.727158421e-09 
                   1                   21        -0.4297126043                    0         0.1174812062                    0        0.02698447396                    0        0.01136846857                    0      1.855719304e-08                    0      6.970517007e-37                    0      5.918159763e-73                    0                    0                    0                    0                    0                    0                    0                    0         0.0327839045        0.03006302893        0.02619391207       0.007297372785       -0.00146797667      1.267363846e-05     -3.912282587e-07     -8.077385834e-25        0.04714779028        0.04541115453        0.03118606406        0.01757327734      -0.002423236194      6.320658627e-05     -4.307499649e-06      2.517734878e-10 
                   1                    2          2.805569309                    0         0.2096135602                    0        0.04814652353                    0        0.02028396924                    0      3.311031124e-08                    0      1.243700958e-36                    0      1.055936161e-72                    0                    0                    0                    0                    0                    0                    0                    0         0.1094139703        0.09197976649        0.09872274896        0.01174756974        0.03898568579      1.407950702e-05      2.190408978e-07      4.617600442e-27        0.09364868409        0.08644386284        0.06874710629        0.02765959822        0.00874335996      0.0002843576719      8.436338461e-06      4.910988397e-10 
                   0                   21          2.881734449                    0        -0.1909134139                    0       -0.06955540006                    0       -0.06979203326                    0     -0.0002443911263                    0     -3.981335587e-18                    0     -6.584239688e-36                    0                    0                    0                    0                    0                    0                    0                    0       -0.02808973396       -0.03415217818      -0.001897112414       -0.02969997329        0.01344039348       -0.00237124194      2.517785202e-09     -2.450252788e-07        -0.2120412641        -0.2153754254        -0.1066054363        -0.1197348432       0.005537079285       -0.01228115834     -1.402336975e-05       0.006421125173 
                   1                   22          2.221002546                    0        -0.5046971252                    0        -0.1838760815                    0        -0.1845016431                    0     -0.0006460703644                    0      -1.05250259e-17                    0      -1.74060417e-35                    0                    0                    0                    0                    0                    0                    0                    0        -0.1979041007        -0.2031146718        -0.1027907963        -0.1069912434        0.03996192381       -0.00341015378      9.008089305e-08      1.882924422e-08        -0.5108424555        -0.5266360943        -0.2438109757        -0.3084781421       0.004614771048       -0.03906020843      7.431544918e-05       -0.00349850733 
                   1                    2          1.966320948                    0         0.4244170626                    0         0.1546276817                    0         0.1551537378                    0      0.0005433026514                    0      8.850854013e-18                    0      1.463733539e-35                    0                    0                    0                    0                    0                    0                    0                    0         0.3809435041         0.3243194173         0.3376574448        0.04875374968         0.1198712006       0.002887431673      1.143850467e-07      4.306757303e-07         0.4300198165         0.4419622113         0.2020082216         0.2641979981        0.01694786884        0.03190461437      8.362697423e-05       0.004545430769 
                   0                   24          5.947440773                    0        -0.4997621753                    0       -0.07502444986                    0       -0.00894036642                    0     -3.085496038e-13                    0     -5.408411423e-62                    0    -1.864625568e-123                    0                    0                    0                    0                    0                    0                    0                    0       -0.07432421741       -0.06006122717       -0.06876995118      -0.006076625582       -0.03829533015     -5.251552603e-07     -0.0004598186835      -9.33599628e-34        -0.0741898294       -0.06316422882       -0.06482769367       -0.01029045004       -0.02448953627     -2.933769083e-06      -1.02457918e-05     -8.421548072e-28 
                   1                   25          3.567769906                    0        -0.4480723896                    0        -0.0672647635                    0      -0.008015675342                    0     -2.766366986e-13                    0     -4.849026097e-62                    0    -1.671769644e-123                    0                    0                    0                    0                    0                    0                    0                    0       -0.06087376629       -0.04835274778       -0.05634297504      -0.004974120469        -0.0354411178     -8.444969596e-07      -0.002048453106      2.646110051e-34        -0.0674869218       -0.05857205399       -0.05763442085        -0.0108283747       -0.01656114394     -3.379716406e-06      1.378740815e-06     -9.675920034e-29 
                   1                    2          2.545938279                    0         0.1555886085                    0        0.02335700926                    0       0.002783362246                    0      9.605929755e-14                    0      1.683775302e-62                    0     5.805051118e-124                    0                    0                    0                    0                    0                    0                    0                    0        0.03031662726         0.0219496234        0.02937186883       0.001038337542        0.02546388687      2.606543463e-07       0.005020406491      5.473291433e-37        0.02273569334        0.02064347616        0.01829279814       0.004876548822      0.0009346212239      2.319523258e-08     -8.369496496e-06      6.482212567e-28 
                   0                   85        -0.4285801809                    0         0.4136713791                    0        0.07078082327                    0        0.01309638545                    0      1.809405345e-11                    0      2.668610438e-53                    0     4.067994537e-106                    0                    0                    0                    0                    0                    0                    0                    0        0.06032264135        0.05059063015        0.05350151238       0.007513934005        0.02430272112      1.779668615e-06      1.662724983e-05     -1.339399455e-34        0.09331962998        0.08341620445        0.07585654137        0.01917682035         0.0117095875      1.207263593e-06      4.277720022e-07        3.5957854e-21 
                   1                   49          4.176095223                    0        -0.6723917316                    0        -0.1150489077                    0       -0.02128719011                    0     -2.941052378e-11                    0      -4.33762567e-53                    0    -6.612219334e-106                    0                    0                    0                    0                    0                    0                    0                    0       -0.07975023698       -0.06828631485       -0.06984100503       -0.01088826121       -0.02322475959     -4.659892726e-06      7.049538372e-06     -1.268941088e-34         -0.157695594        -0.1411030607        -0.1284314868       -0.03211426029       -0.01762767985     -6.029625122e-06       1.89229937e-07     -9.383781322e-21 
                   1                    2          2.504037659                    0         0.2055498711                    0        0.03517040297                    0       0.006507485112                    0      8.990784817e-12                    0      1.326010353e-53                    0     2.021352685e-106                    0                    0                    0                    0                    0                    0                    0                    0        0.03739626619        0.03031364414        0.03473895423       0.002922089359         0.0198177028      1.144261848e-06      1.371224322e-05     -1.586929292e-35        0.04948431676        0.04399179204        0.04052691052       0.009841917383         0.0076213686      2.586044582e-06      1.696593093e-07      3.497467969e-21 
                   0                   25          2.642840274                    0       -0.03894312647                    0      -0.004826346223                    0     -0.0002755771629                    0      -2.29828731e-17                    0     -3.207467778e-77                    0    -1.611858662e-152                    0                    0                    0                    0                    0                    0                    0                    0      -0.002547662059      -0.001824064059      -0.002433286294     -0.0001266620125      -0.002273137431     -1.495806532e-09     -0.0005571898664      1.467158544e-50      -0.003337716734      -0.002882979556      -0.002909005647     -0.0004696160162     -0.0008730409693      2.269544253e-09      1.669841897e-05       1.45646858e-54 
                   1                   26          5.816638489                    0        -0.3950699673                    0       -0.04896228468                    0      -0.002795673347                    0     -2.331564963e-16                    0     -3.253909752e-76                    0     -1.63519729e-151                    0                    0                    0                    0                    0                    0                    0                    0       -0.03391196286       -0.02692015529       -0.03162531828      -0.002501510003       -0.01937283758     -2.517180379e-09      -0.001103983335     -1.124976552e-50       -0.03477919372       -0.02872941481       -0.03164486007      -0.003431647433       -0.01517594746     -2.245101921e-08     -5.869055655e-05     -9.453169804e-55 
                   1                    2          2.405258272                    0        0.09294166296                    0        0.01151855756                    0       0.000657692438                    0      5.485092336e-17                    0      7.654942378e-77                    0     3.846861772e-152                    0                    0                    0                    0                    0                    0                    0                    0       0.009654559145       0.007248758037       0.009216960302      0.0004788865346       0.006982602763      6.110078191e-10       0.001340670655      2.457071706e-52       0.007840034933       0.006804964593       0.006825441175       0.001110619882       0.001779587106      4.929965378e-10     -3.556595141e-05     -1.403102256e-54 
                   0                  151         0.8510354632                    0        0.05122593302                    0       0.005847150753                    0      0.0002344538275                    0      1.119143036e-18                    0      1.283009785e-83                    0     3.140238152e-165                    0                    0                    0                    0                    0                    0                    0                    0       0.003706702379       0.002713191955       0.003524189171      0.0002000323489       0.002742516576     -3.324265615e-11        0.00118570285     -1.761140995e-69       0.003638512482       0.003104968591        0.00321822156      0.0004600541183       0.001076696503      6.443198202e-09      -3.30559568e-06     -1.674718673e-41 
                   1                   23         -5.694717928                    0         0.2416607728                    0        0.02758421148                    0        0.00110604707                    0      5.279610444e-18                    0      6.052659616e-83                    0     1.481422268e-164                    0                    0                    0                    0                    0                    0                    0                    0        0.01555381271        0.01194682271        0.01462509429       0.001017434354        0.01020125135      6.735365493e-10       0.001931801886      8.048784496e-70        0.01860790082        0.01545643194        0.01690739309       0.001860600961       0.007634313144      2.191499864e-08      1.063859432e-05      1.032555541e-40 
                   1                    2          5.371744348                    0       -0.06762821863                    0      -0.007719378958                    0     -0.0003095247615                    0     -1.477486997e-18                    0     -1.693823052e-83                    0    -4.145726584e-165                    0                    0                    0                    0                    0                    0                    0                    0      -0.004573444318       -0.00342610955      -0.004327048697     -0.0002700334405      -0.003212454862     -1.685504999e-10      -0.001020761599     -7.900147972e-71      -0.005463692854      -0.004569238487      -0.004940599654     -0.0005720664897       -0.00207557502     -2.509258333e-09      5.488013239e-07       -5.1825363e-41 