ITEM: TIMESTEP
0
ITEM: NUMBER OF ENTRIES
4812
ITEM: BOX BOUNDS xy xz yz pp pp pp
-0.026733 19.1744 2.95065e-05
0 11.54 -0.026733
0 30 1.98508e-05
ITEM: ENTRIES c_2[1] c_2[2] c_2[3] c_2[4] c_2[5] c_2[6] c_2[7] c_2[8] c_2[9] c_2[10] c_2[11] c_2[12] c_2[13] c_2[14] c_2[15] c_2[16] c_2[17] c_2[18] c_2[19] c_2[20] c_2[21] c_2[22] c_2[23] c_2[24] c_2[25] c_2[26] c_2[27] c_2[28] c_2[29] c_2[30] c_2[31] c_2[32] c_2[33] c_2[34] c_2[35] c_2[36] c_2[37] c_2[38] c_2[39] 
                   0                   25          2.855248105                    0       -0.06164393475                    0       -0.00819364545                    0     -0.0006202790743                    0     -5.113387729e-16                    0     -1.070704957e-71                    0    -8.550866929e-142                    0                    0                    0                    0                    0                    0                    0                    0      -0.004824729207      -0.003459436796      -0.004654015643     -0.0001899027257      -0.004395542175     -3.937961853e-09     -0.0009071674108     -7.956298646e-66      -0.005842273156      -0.005306261457      -0.004686023781      -0.001268575562     -0.0001982827719      7.214995196e-09      3.591253355e-07      3.674399507e-48 
                   1                   26          5.617313081                    0         0.4944795176                    0         0.0657256852                    0       0.004975595713                    0      4.101726322e-15                    0      8.588706622e-71                    0     6.859115291e-141                    0                    0                    0                    0                    0                    0                    0                    0        0.05215091851        0.04116151592        0.04857118268       0.003922091611        0.03110795372      4.684580268e-09       0.002100358371       9.02512152e-67        0.04880297002        0.04210828077        0.04221305347        0.00722688563        0.01259573067      1.607771814e-07      4.977669464e-07      3.662369189e-48 
                   1                    2           1.80041314                    0         0.1583393904                    0        0.02104630133                    0       0.001593256675                    0      1.313431239e-15                    0      2.750226293e-71                    0     2.196386494e-141                    0                    0                    0                    0                    0                    0                    0                    0        0.01984983714        0.01463591694        0.01894241084      0.0009952472389        0.01515566793      1.893455833e-10       0.004074449345     -2.776218352e-66        0.01596413278         0.0140951497        0.01336075817       0.002855657414       0.002547709974      8.591493619e-09      -3.34565994e-07     -5.336466504e-48 
                   0                   28          6.119134592                    0        -0.4061471787                    0       -0.05596234464                    0       -0.00486735887                    0      -1.24887561e-14                    0     -3.235571361e-68                    0     -1.04979954e-135                    0                    0                    0                    0                    0                    0                    0                    0       -0.05630891438       -0.04584519812       -0.05234134749      -0.004329225701       -0.02699283892      1.372359554e-11     -7.290530181e-06     -4.919161331e-75         -0.046998485       -0.03994226196       -0.04138835365      -0.006157413707       -0.01538182147     -9.708477117e-07     -3.618440287e-06     -6.750192783e-33 
                   1                   29           7.15803582                    0         0.3967126595                    0        0.05466237792                    0       0.004754293476                    0       1.21986509e-14                    0      3.160411268e-68                    0      1.02541342e-135                    0                    0                    0                    0                    0                    0                    0                    0        0.05220278048        0.04176316011        0.04860254871       0.003934305984        0.02816023096      1.038461971e-10       0.001207548753     -3.843634679e-75        0.04713285063        0.04031960491        0.04121881913       0.006486946619        0.01392176128      6.584129732e-07      2.288663371e-06      3.391010396e-32 
                   1                    2          2.547276684                    0         0.1008689669                    0        0.01389856728                    0       0.001208836319                    0      3.101653765e-15                    0      8.035725905e-69                    0     2.607236996e-136                    0                    0                    0                    0                    0                    0                    0                    0         0.0172835267        0.01296335268        0.01671363382      0.0006218511187        0.01295213827     -6.102081993e-12       0.001354574911      -1.46315753e-75        0.01124964356        0.01020277124       0.009070919337       0.002393820123      0.0005806303174      3.071156113e-07      -5.57036907e-06      -1.26296169e-32 
                   0                   89         -3.956855332                    0         0.1107978331                    0        0.01178832274                    0      0.0003420591078                    0      1.129050866e-19                    0      3.816381953e-89                    0     2.584782963e-176                    0                    0                    0                    0                    0                    0                    0                    0       0.004525797757       0.003459424836       0.004340005026      0.0002026944488       0.003097678577      1.004458078e-12       0.000365475793      1.242376159e-93       0.005910090048       0.004807741405       0.005471852144      0.0004791728931       0.002908006529      3.215426979e-09      2.152503158e-05      3.132127409e-46 
                   1                   54          10.00712908                    0        0.01794586486                    0       0.001909348233                    0      5.540312792e-05                    0      1.828717555e-20                    0      6.181373122e-90                    0     4.186558927e-177                    0                    0                    0                    0                    0                    0                    0                    0      0.0007574358855      0.0005869592778      0.0007241031651      3.634378707e-05      0.0004916719393     -7.354467197e-14      3.410059152e-05     -1.918484706e-93      0.0009507952166      0.0007642454615      0.0008859838913      7.089239156e-05      0.0005105549005      8.194485619e-10      8.170981426e-06     -6.786178544e-47 
                   1                    2          2.273804951                    0        0.02256758194                    0       0.002401075292                    0      6.967146132e-05                    0      2.299679264e-20                    0      7.773302962e-90                    0     5.264751094e-177                    0                    0                    0                    0                    0                    0                    0                    0      0.0009916717264      0.0007410143164      0.0009576605923      3.710495831e-05      0.0007306114995      9.547667944e-14      0.0001449529835     -7.251829956e-94       0.001181590916      0.0009746186667       0.001081297693      0.0001097008783      0.0005184081843      7.222114523e-10      2.954777394e-07     -2.990854817e-47 
                   0                   88        -0.7619490072                    0         0.5949607683                    0         0.1204741046                    0        0.03668252798                    0       3.57847053e-09                    0      5.956572616e-43                    0      1.037187585e-85                    0                    0                    0                    0                    0                    0                    0                    0         0.1224552403         0.1089159806         0.1009422719         0.0237296981           0.01681034      6.230861948e-05     -2.689865367e-06     -1.335150605e-22          0.185168336         0.1723183558         0.1349375162        0.05555716932       0.007453281888      0.0001961142365     -1.733321978e-08      5.079736952e-19 
                   1                   53            8.0024929                    0         0.6057288719                    0         0.1226545469                    0        0.03734643942                    0      3.643236719e-09                    0      6.064379709e-43                    0      1.055959484e-85                    0                    0                    0                    0                    0                    0                    0                    0          0.107152402        0.09512899459         0.0868428867         0.0224064926        0.02010308991      5.707088709e-05      1.436604171e-06      2.413574603e-22         0.1991148259         0.1827602079         0.1498031421        0.05466225203        0.01757601052      0.0002393446282       1.24913407e-08     -1.921330371e-19 
                   1                    2          2.057027151                    0         0.2963874277                    0        0.06001573862                    0        0.01827387735                    0      1.782661534e-09                    0      2.967343949e-43                    0      5.166884554e-86                    0                    0                    0                    0                    0                    0                    0                    0        0.08015700467        0.06827768498        0.07042314744        0.01072011522        0.02544573017      2.969262073e-05      5.816418481e-06      1.042915658e-23          0.105030352        0.09541458357         0.0816113645        0.02589001235        0.01036713393      0.0001012529271      3.679809936e-08      2.906603299e-19 
                   0                   29          3.493567635                    0        -0.3112871301                    0        -0.1139149991                    0        -0.1150059973                    0     -0.0004254392918                    0     -8.825706779e-18                    0     -1.974236464e-35                    0                    0                    0                    0                    0                    0                    0                    0        -0.1413254516        -0.1415158468       -0.07889646282       -0.07020946614        0.01248239977      -0.001317626268      6.286019769e-11      -5.10747846e-14        -0.2872531885        -0.3021756853        -0.1219820062        -0.1907194605        0.01074368529       -0.02100264201      6.637963965e-06      -0.004652503463 
                   1                   30          9.430897715                    0         0.3733974285                    0         0.1366441578                    0           0.13795284                    0      0.0005103260694                    0      1.058667673e-17                    0      2.368150648e-35                    0                    0                    0                    0                    0                    0                    0                    0         0.1651043563         0.1790857598        0.06002620354         0.1170917205       -0.04838784933       2.89630849e-05     -1.960301834e-10       2.78364885e-14          0.369144589         0.3745187798         0.1906360218         0.2059158188      0.0001785478969        0.02756002455      -6.09768404e-06      -0.005454407837 
                   1                    2          1.503957877                    0         0.4803086482                    0         0.1757681379                    0         0.1774515223                    0      0.0006564427224                    0      1.361785594e-17                    0      3.046199972e-35                    0                    0                    0                    0                    0                    0                    0                    0         0.4975472588         0.4360863692          0.419923425        0.08625583533        0.09753290133      0.0008669244866      2.097374698e-10      7.747823926e-14         0.4527194264         0.4683453479         0.2090992859         0.2838620004        0.01438063824        0.03259803134      9.298854282e-06        0.01745411031 
                   0                  139        -0.3592827343                    0         0.6076621689                    0         0.2165093338                    0         0.2105260001                    0       0.000556628991                    0       2.63171474e-18                    0      9.275204272e-37                    0                    0                    0                    0                    0                    0                    0                    0          0.235444641         0.2494716064        0.09897798328         0.1584750296       -0.02232195857        0.02151735206     -8.491294165e-06      9.039765578e-05         0.6439357295         0.6306525225         0.3856591207         0.2925069653        0.01240892574        0.01912491244     -5.906661561e-06      0.0001632693457 
                   1                   45          11.56354417                    0        -0.1342261166                    0       -0.04782461137                    0       -0.04650295653                    0     -0.0001229534298                    0     -5.813178234e-19                    0     -2.048794073e-37                    0                    0                    0                    0                    0                    0                    0                    0       -0.07677816479       -0.07289741463       -0.04875907124       -0.03221402278         -0.016969541      -0.004535658474      1.255370307e-05      0.0002674656999         -0.093379417        -0.1052660107       -0.01645582302       -0.08672326026       0.004044179348      -0.003784336055     -1.007624454e-05     -0.0001310141023 
                   1                    2          2.163992935                    0         0.3250850886                    0         0.1158274442                    0         0.1126265002                    0      0.0002977835286                    0      1.407906009e-18                    0      4.962017971e-37                    0                    0                    0                    0                    0                    0                    0                    0         0.2176764059         0.1926479235         0.1644167535        0.06301178711         0.1010430737        0.01249325163      2.301161803e-05       0.000322179002         0.3894584084         0.3781565436         0.2430531382         0.1650925243       0.005746868783       0.009841464078      6.689121917e-06     -0.0001470369882 
                   0                  104          2.394485451                    0       -0.04987274046                    0       -0.01852083842                    0       -0.01907701843                    0     -8.444538072e-05                    0     -3.861462038e-18                    0     -2.319308495e-35                    0                    0                    0                    0                    0                    0                    0                    0        0.05604863229        0.04024337032        0.06651661102       -0.01281373603        0.02786917316      -0.005114619344     -1.700525731e-07      -3.18700567e-07        -0.1099647438       -0.09337078875        -0.1020305428      -0.008269614781        -0.0132160135      0.0007895538626      9.687037968e-07       0.001609531155 
                   1                   22          13.20073481                    0        -0.5210280973                    0        -0.1934900131                    0        -0.1993005102                    0     -0.0008822137232                    0     -4.034128063e-17                    0     -2.423016825e-34                    0                    0                    0                    0                    0                    0                    0                    0        -0.2266444967        -0.2441389397       -0.08440298962        -0.1632592407        0.03789319025       -0.01280325402      1.130989015e-06      7.463738215e-07         -0.551044235         -0.553479227        -0.3027040881        -0.2859149415      -0.001266695482       -0.03961891052      4.709588482e-06     -0.0009021614304 
                   1                    2          1.739036609                    0         0.4230714312                    0          0.157112634                    0         0.1618307199                    0      0.0007163518136                    0      3.275685787e-17                    0      1.967473926e-34                    0                    0                    0                    0                    0                    0                    0                    0         0.3524470381         0.3156789605         0.2758997015        0.08919697165        0.09274628009        0.01630314432       1.45621589e-06      1.382785825e-06         0.4999873946         0.4969517663         0.2819188446         0.2495381249         0.0116819192        0.02671338973      5.713064801e-06     -3.243018858e-05 
                   0                  103          6.149262103                    0        -0.8721647537                    0        -0.1974263263                    0       -0.08026984098                    0     -9.610177774e-08                    0     -9.283138803e-37                    0     -1.444611671e-73                    0                    0                    0                    0                    0                    0                    0                    0        -0.3007151953        -0.2682370593        -0.2433364668       -0.06337716993       -0.04684071839     -0.0001042548329      5.108117531e-07     -7.437101307e-27        -0.3477719932        -0.3242637167         -0.250512378         -0.107905702        -0.0181083357      -0.001053165691     -1.030852412e-06     -2.733490185e-10 
                   1                   21          11.75774595                    0        -0.1662801108                    0       -0.03763975931                    0        -0.0153036201                    0     -1.832201334e-08                    0     -1.769850641e-37                    0     -2.754183629e-74                    0                    0                    0                    0                    0                    0                    0                    0       -0.06471424523        -0.0583030262       -0.05096658662       -0.01520494546      -0.008884278471      2.487829674e-05     -6.382996058e-07      2.413271065e-26       -0.06465244936       -0.05959303959       -0.04926175002       -0.01705467636      -0.002102003452     -0.0003087668918      5.879752343e-06      2.620413324e-11 
                   1                    2          2.634251446                    0         0.1958311217                    0        0.04432903161                    0        0.01802335273                    0      2.157816955e-08                    0      2.084385407e-37                    0      3.243652334e-74                    0                    0                    0                    0                    0                    0                    0                    0          0.106998135        0.08977481263        0.09693132885        0.01107983489        0.03868368542      2.244898126e-05      4.209188182e-06      1.165288052e-27         0.0790891518        0.07439623817        0.05419894346        0.02775150216        0.00645155038       0.000355190212      4.128860174e-06      -2.61648988e-11 
                   0                  106          5.725352752                    0        -0.4258261462                    0       -0.06202379921                    0      -0.006631574806                    0     -9.315620418e-14                    0     -3.442857315e-64                    0    -9.613494512e-128                    0                    0                    0                    0                    0                    0                    0                    0       -0.05475072094       -0.04347187633       -0.05127278648      -0.003812883812       -0.03181152277     -6.796781104e-07      -0.001157102254     -1.430933465e-39        -0.0597576887       -0.05202277381       -0.05064500635       -0.01003116823       -0.01447312772     -2.239424711e-06      1.309160221e-06     -1.499764849e-35 
                   1                   25          14.93119586                    0        -0.4724907581                    0       -0.06882074332                    0      -0.007358302995                    0      -1.03364826e-13                    0     -3.820146501e-64                    0    -1.066699955e-127                    0                    0                    0                    0                    0                    0                    0                    0       -0.05633466206        -0.0454819145       -0.05171177111      -0.005079930381       -0.03017003225     -5.650359689e-07     -0.0005556989316      7.417427411e-40       -0.06717418848       -0.05831560559        -0.0569253122       -0.01128509299       -0.01746494487     -2.577055065e-06     -2.663566923e-06      8.618791099e-36 
                   1                    2          2.332349862                    0         0.1433596043                    0         0.0208810741                    0       0.002232601142                    0      3.136218076e-14                    0      1.159080218e-64                    0      3.23650105e-128                    0                    0                    0                    0                    0                    0                    0                    0        0.02416602451        0.01754334175        0.02342219626      0.0008214749682        0.02061537204      1.733359933e-07       0.003283575726     -2.010534833e-40        0.01989755697        0.01788419368        0.01590755483       0.004392294655       0.002407848724      5.488983434e-07      1.987018462e-07      1.828590196e-35 
                   0                  142        -0.4667798581                    0         0.3573662524                    0        0.05469668813                    0       0.006977610141                    0      4.245221933e-13                    0       8.53741732e-61                    0      6.18679272e-121                    0                    0                    0                    0                    0                    0                    0                    0         0.0379281607        0.03205051501        0.03323423568       0.005156577175        0.01395546165       7.59365236e-08      4.020544426e-05      1.709439561e-45        0.07678007876        0.06648385323        0.06645724241        0.01129927482        0.01750441325      4.733306237e-09      1.992448304e-07      -4.85034632e-51 
                   1                   49          15.53169721                    0        -0.6107058384                    0       -0.09347157588                    0        -0.0119240897                    0     -7.254691236e-13                    0     -1.458965576e-60                    0    -1.057265595e-120                    0                    0                    0                    0                    0                    0                    0                    0       -0.05731920823       -0.04874337773       -0.04997850439      -0.008073127356        -0.0198684803     -3.556187319e-07      5.289097678e-07      6.237950771e-46        -0.1335735272         -0.115612244        -0.1158292813         -0.019416432       -0.03021735193     -3.861895292e-09     -5.536068744e-07      -5.34667213e-51 
                   1                    2          2.991526865                    0        0.07186516019                    0        0.01099932136                    0       0.001403174103                    0      8.536999568e-14                    0      1.716846118e-61                    0     1.244143359e-121                    0                    0                    0                    0                    0                    0                    0                    0         0.0110738447       0.008984445682        0.01013668301       0.001029880584       0.005960120879      7.838831003e-09      2.020292797e-05     -1.751396414e-46        0.01494242031        0.01242153497        0.01323828004       0.001873108732       0.006921067984      6.563391181e-10       2.64093665e-06      1.626211776e-51 
                   0                  107          2.855277611                    0      -0.005674914867                    0     -0.0005868154577                    0     -1.483936176e-05                    0      -1.47694042e-21                    0     -5.694729446e-93                    0    -1.876305859e-182                    0                    0                    0                    0                    0                    0                    0                    0     -0.0002380554721      -0.000188076932     -0.0002236715339     -1.570627387e-05     -0.0001367093211     -1.016688934e-13     -1.056370195e-05     -9.644179527e-97     -0.0002720169855     -0.0002191136028     -0.0002526915368     -2.113288586e-05     -0.0001432999746     -4.115776946e-11     -2.957684501e-06     -2.589637014e-48 
                   1                   26          17.15730388                    0       -0.05203835232                    0      -0.005381033945                    0     -0.0001360753339                    0     -1.354338307e-20                    0     -5.222004986e-92                    0    -1.720552072e-181                    0                    0                    0                    0                    0                    0                    0                    0      -0.002267164673      -0.001799713498      -0.002131653687     -0.0001478926414      -0.001274377788     -4.553893793e-13     -7.210648479e-05     -7.568540577e-97      -0.002454128692      -0.001974298784      -0.002282867582     -0.0001872791796      -0.001306309974     -3.435250131e-10     -2.637578369e-05     -1.628891027e-47 
                   1                    2           1.80041314                    0        0.01457601737                    0       0.001507235352                    0      3.811489686e-05                    0      3.793521087e-21                    0      1.462691111e-92                    0     4.819291114e-182                    0                    0                    0                    0                    0                    0                    0                    0      0.0006551195139      0.0005166977508      0.0006179744604      4.053504705e-05      0.0003808696369      9.218270864e-14      2.806410414e-05     -3.878049483e-97      0.0006852660155      0.0005554923561      0.0006345106641      5.549746593e-05      0.0003457961509      7.459686281e-11      4.053246712e-06      4.186826927e-48 
                   0                   75         -2.129670769        0.03405459431                    0       0.003515562977                    0      8.817898064e-05                    0      8.153904293e-21                    0      2.394397462e-92                    0     5.748041531e-182                    0       0.001045514605      0.0008823021796      0.0009382840938      0.0001171759033      0.0003459182723      2.557864662e-12      1.183557829e-07      9.903274214e-74       0.001774998083       0.001437425369       0.001648538404      0.0001381759866      0.0008910814952      3.335606419e-10      1.553035811e-05      6.615760694e-58                    0                    0                    0                    0                    0                    0                    0                    0 
                   1                   16          6.244006522        0.03756043979                    0       0.003877482442                    0      9.725681248e-05                    0       8.99333078e-21                    0      2.640895407e-92                    0     6.339789746e-182                    0       0.001153740894      0.0009720521819       0.001036679574      0.0001279247799      0.0003907927957      3.464490616e-12      1.833650734e-07      1.901684537e-74       0.001956805204       0.001585825548       0.001815879901      0.0001539924089      0.0009768319534      3.509636934e-10      1.723138479e-05       2.13388228e-58                    0                    0                    0                    0                    0                    0                    0                    0 
                   1                    1          3.887582857      -0.002865675573                    0     -0.0002958327107                    0     -7.420213217e-06                    0     -6.861466073e-22                    0     -2.014872429e-93                    0    -4.836945656e-183                    0     -8.771161598e-05     -7.403346557e-05     -7.869522218e-05      -9.85279917e-06     -2.895430097e-05     -2.220338197e-13     -9.721052601e-09     -7.510189394e-75     -0.0001454361881     -0.0001170204949     -0.0001345581545     -1.189823157e-05     -7.547236396e-05     -2.000722414e-11     -3.534075381e-06      1.857875208e-58                    0                    0                    0                    0                    0                    0                    0                    0 