ITEM: TIMESTEP
0
ITEM: NUMBER OF ENTRIES
4776
ITEM: BOX BOUNDS xy xz yz pp pp pp
-0.026733 19.1744 2.95065e-05
0 11.54 -0.026733
0 30 1.98508e-05
ITEM: ENTRIES c_2[1] c_2[2] c_2[3] c_2[4] c_2[5] c_2[6] c_2[7] c_2[8] c_2[9] c_2[10] c_2[11] c_2[12] c_2[13] c_2[14] c_2[15] c_2[16] c_2[17] c_2[18] c_2[19] c_2[20] c_2[21] c_2[22] c_2[23] c_2[24] c_2[25] c_2[26] c_2[27] c_2[28] c_2[29] c_2[30] c_2[31] c_2[32] c_2[33] c_2[34] c_2[35] c_2[36] c_2[37] c_2[38] c_2[39] 
                   0                  156           5.85536012                    0        -0.3426816523                    0       -0.04567278282                    0      -0.003494467986                    0     -3.141588968e-15                    0     -9.493004366e-71                    0    -1.197550903e-140                    0                    0                    0                    0                    0                    0                    0                    0       -0.03588394979       -0.02866927737       -0.03375932839      -0.002323764382       -0.02027574769     -2.236107136e-07      2.302160438e-05     -8.629640168e-41       -0.03701916017       -0.03130262615       -0.03274919841      -0.004688013505       -0.01298813697     -4.454530345e-07     -6.748364017e-06      1.396336846e-38 
                   1                   29          -3.91841868                    0          0.382485195                    0        0.05097781899                    0       0.003900361341                    0      3.506494324e-15                    0      1.059564643e-70                    0     1.336650176e-140                    0                    0                    0                    0                    0                    0                    0                    0        0.04013107606        0.03143268194         0.0377070644       0.002658752501        0.02494100995      2.314921511e-07       0.001857452525     -4.020147648e-41        0.04207951379        0.03582888104        0.03703748899       0.005531555376        0.01328867466       3.78341529e-07      2.138155146e-06      6.430981536e-38 
                   1                    2           2.57390218                    0          0.118563004                    0        0.01580213675                    0       0.001209036489                    0      1.086945341e-15                    0       3.28444522e-71                    0     4.143356716e-141                    0                    0                    0                    0                    0                    0                    0                    0        0.01473991623         0.0109167426        0.01424244089      0.0005461126931        0.01154754881      7.420887562e-08       0.001866429704      6.037702988e-42        0.01197436458        0.01067259992       0.009895753045       0.002283271267       0.001551577247      9.511888928e-08      -5.99353974e-06     -2.287696053e-38 
                   0                  187        -0.6254138683                    0          0.671366036                    0         0.2226314331                    0         0.1943335571                    0      0.0001960952433                    0      1.335611033e-20                    0      2.353084338e-41                    0                    0                    0                    0                    0                    0                    0                    0          0.158266772         0.1646008416         0.0728335064        0.09941552945      -0.005601059681        0.01511630651     -4.729255883e-06      3.399959099e-08         0.6386732169         0.6327772736         0.3718372701         0.3041663781       0.003317551209        0.03428670551     -4.436575493e-05       0.001325938214 
                   1                   45       -0.03697089788                    0        0.05896308515                    0          0.019552726                    0        0.01706744974                    0      1.722217078e-05                    0      1.173007612e-21                    0      2.066609044e-42                    0                    0                    0                    0                    0                    0                    0                    0        0.03582568634        0.03528218259        0.02229214048         0.0151314388      -0.003656678069      0.0004733247887     -6.084064203e-06     -8.672454225e-07        0.05631880087        0.05585054991        0.03434201401        0.02503395114      -0.003109885959       0.003465782876     -0.0002064658667      0.0003463680999 
                   1                    2           2.48051881                    0         0.3309244577                    0         0.1097377322                    0        0.09578936607                    0      9.665772257e-05                    0      6.583388688e-21                    0      1.159863795e-41                    0                    0                    0                    0                    0                    0                    0                    0         0.1265068008         0.1111122731        0.09857944557        0.03303933837         0.0573776104       0.008274981817      1.170937757e-05      8.679482838e-07         0.3688696608         0.3532568598         0.2416608549         0.1442984626        0.01773565432        0.01337393281      0.0001265203668      -0.001149032844 
                   0                  193        -0.2795560888                    0          0.408054602                    0        0.07049355086                    0        0.01344631353                    0      2.403926718e-11                    0      1.085394727e-52                    0      6.69105075e-105                    0                    0                    0                    0                    0                    0                    0                    0        0.04065553528          0.034790739        0.03508106204       0.006148982423        0.01337169405      1.617657022e-06      4.942747502e-07     -1.011486404e-34        0.09991982025        0.08870564497        0.08286247452        0.01870385077        0.01324350122      7.054750337e-06     -5.051794325e-09      3.371555868e-20 
                   1                   53          -3.81343917                    0         0.6729160965                    0          0.116249749                    0        0.02217409329                    0      3.964275799e-11                    0      1.789906496e-52                    0     1.103410115e-104                    0                    0                    0                    0                    0                    0                    0                    0        0.05409458108        0.04646668537        0.04685611003       0.007969885147        0.01572921175      4.300411485e-06       7.45214651e-07      9.114056813e-35         0.1722538831         0.1522125819         0.1439105564         0.0310953397        0.02637066071      2.587927851e-05     -3.113202962e-09      2.600427445e-20 
                   1                    2          2.415475599                    0         0.2405496496                    0        0.04155620076                    0       0.007926649992                    0      1.417123412e-11                    0      6.398440796e-53                    0     3.944398386e-105                    0                    0                    0                    0                    0                    0                    0                    0        0.02823840066        0.02331721243        0.02564397057       0.002857637056        0.01301166789      1.334730348e-06      5.021778456e-06     -1.587434796e-36        0.06364953102        0.05565444714        0.05370152933        0.01092930139        0.01375756231      1.221206774e-05      7.102837336e-08      3.128996799e-21 
                   0                  194         -3.595558491                    0          0.110405165                    0        0.01178650835                    0      0.0003475671895                    0      1.315402457e-19                    0      7.464865564e-89                    0     9.466803539e-176                    0                    0                    0                    0                    0                    0                    0                    0       0.002761715554       0.002193276698       0.002599064395      0.0001775945661       0.001585362127      6.090358307e-12      4.498580578e-05      5.164342305e-84         0.0068090791       0.005293148797       0.006408111847      0.0004387363338       0.004263745123      1.965541376e-09      0.0005646779296      1.574313776e-44 
                   1                   54         -1.788460412                    0        0.03829643374                    0       0.004088406879                    0      0.0001205612422                    0      4.562759634e-20                    0      2.589351046e-89                    0     3.283766791e-176                    0                    0                    0                    0                    0                    0                    0                    0      0.0009711023008       0.000778141728      0.0009099895028      6.671228467e-05      0.0005260117725      8.109201234e-13       8.92075576e-06     -4.994463086e-84       0.002351796405       0.001802552535       0.002221604275       0.000142542794        0.00155360857      1.053152387e-09      0.0002938757018      7.905585626e-46 
                   1                    2          2.108440266                    0         0.0334695238                    0       0.003573101147                    0      0.0001053656169                    0      3.987666141e-20                    0      2.262987385e-89                    0     2.869878473e-176                    0                    0                    0                    0                    0                    0                    0                    0      0.0009046600811      0.0007097678547      0.0008567473179      5.230879103e-05      0.0005548300607      1.153803212e-12      2.564893054e-05     -2.044534256e-84         0.0020901919       0.001647649862       0.001956368005      0.0001463956003       0.001230676253      8.590006758e-10      9.938550996e-05      6.198603925e-46 
                   0                  157           2.96545103                    0        -0.1913377317                    0       -0.07072570571                    0       -0.07239132936                    0     -0.0003028462301                    0      -1.07987183e-17                    0     -4.753190276e-35                    0                    0                    0                    0                    0                    0                    0                    0        0.02915709033        0.01127032227        0.06042405763       -0.03624343313        0.02792185391      -0.001814635327      -7.01933619e-07     -7.481646934e-10        -0.2219660341        -0.2249860756        -0.1136910523        -0.1227304435        0.01033961945       -0.01358355176      1.205011648e-05       0.009253165853 
                   1                   30         -1.732280264                    0          0.460106518                    0         0.1700728753                    0         0.1740781716                    0      0.0007282490663                    0      2.596749021e-17                    0      1.142991405e-34                    0                    0                    0                    0                    0                    0                    0                    0         0.2193335937         0.2238002799         0.1157275067         0.1160516996       -0.03813623076       0.002370687814     -2.255112439e-06     -1.664623968e-09          0.478048407         0.4870349149         0.2471629513         0.2686148685       0.003949591341        0.04369223302     -4.581136021e-06       0.004321357921 
                   1                    2          1.925058738                    0          0.457256215                    0         0.1690192949                    0         0.1729997788                    0      0.0007237376534                    0      2.580662482e-17                    0      1.135910714e-34                    0                    0                    0                    0                    0                    0                    0                    0         0.3474689501         0.3057356623         0.2813263291        0.07449945182        0.09639370677       0.002697687414      2.112141405e-06      2.617388127e-09         0.4859232025         0.4975337417         0.2400072403         0.2854009158        0.01160484926        0.04141621583      9.898462399e-06       0.006333372728 
                   0                   21          2.703734086                    0        -0.1292626028                    0       -0.04777830797                    0       -0.04890062925                    0     -0.0002044660138                    0     -7.273827115e-18                    0     -3.192390999e-35                    0                    0                    0                    0                    0                    0                    0                    0        0.03708106752        0.02145021321        0.05869689049       -0.02477541588        0.02399597997      -0.001161311449     -9.729214479e-09     -7.401754796e-14        -0.1588806228        -0.1581319932       -0.09020972967       -0.07813209253      0.0007731349697      -0.009183909191     -5.595746556e-05      0.0007903535226 
                   1                   22          2.110816687                    0        -0.4514379671                    0        -0.1668614259                    0        -0.1707810317                    0     -0.0007140790889                    0     -2.540318433e-17                    0     -1.114913727e-34                    0                    0                    0                    0                    0                    0                    0                    0          -0.19173457        -0.1982481535       -0.09532931673        -0.1074958683        0.04369981245     -0.0003157216433      2.734058798e-08     -5.484136227e-14        -0.4728246878        -0.4802337842        -0.2404064119        -0.2660247306        0.00574654547        -0.0221924216      0.0002305807366     -4.601187552e-05 
                   1                    2          1.800721789                    0         0.4867522351                    0          0.179914358                    0         0.1841405795                    0      0.0007699387688                    0      2.739037842e-17                    0       1.20212917e-34                    0                    0                    0                    0                    0                    0                    0                    0         0.4175175648         0.3647895849         0.3514814354        0.07356451207         0.0965803697       0.000853873893      2.447106949e-08      2.478029866e-13         0.5346252753         0.5417457782         0.2652353639         0.3069836207        0.01275610126        0.01854440585       0.000202127184      0.0009097245125 
                   0                   20           6.06507647                    0        -0.8461548503                    0        -0.1870920087                    0       -0.07175786182                    0     -5.170205783e-08                    0     -5.403843908e-38                    0     -5.226093684e-76                    0                    0                    0                    0                    0                    0                    0                    0        -0.2855948565        -0.2476982218        -0.2454523688        -0.0441088836       -0.06721697604     -2.893730688e-05      9.814972344e-06     -3.580789174e-28         -0.334069716        -0.3084678987         -0.248829103       -0.09410197198       -0.01959484616     -0.0002784776971      1.448681386e-07     -4.064239624e-09 
                   1                   21       0.004756974293                    0        0.04392760089                    0       0.009712764849                    0       0.003725264606                    0      2.684080061e-09                    0      2.805371835e-39                    0      2.713093915e-77                    0                    0                    0                    0                    0                    0                    0                    0        0.01953104852        0.01567276501         0.0182232238       0.001472231094        0.01188188088      2.618754743e-07     -6.275813572e-06     -1.896927268e-27        0.01678101719         0.0167203664       0.009788098534       0.007729582137      -0.002229849451      8.182094874e-05      3.157358662e-07      3.977077832e-10 
                   1                    2          2.322278262                    0         0.3315452538                    0         0.0733074655                    0         0.0281165776                    0      2.025819728e-08                    0       2.11736516e-38                    0      2.047718046e-76                    0                    0                    0                    0                    0                    0                    0                    0         0.1548329001         0.1265429984         0.1443338846        0.01150823319        0.07366519456      1.148745526e-05      4.222556457e-05      2.291062026e-28         0.1292593369         0.1208376484        0.09240716061        0.04069123368       0.005662443006      0.0001430790514      4.947396941e-07      1.694590469e-09 
                   0                   84        -0.7308212494                    0         0.5133413687                    0        0.09256159254                    0        0.02016017902                    0      1.112425202e-10                    0      6.736426588e-50                    0      1.885065883e-99                    0                    0                    0                    0                    0                    0                    0                    0         0.0791410578         0.0665130575        0.07010143589       0.009986927627        0.03146512418      1.140311768e-05      4.103610599e-06      -1.00835442e-28         0.1453716211          0.130002341         0.1184140975        0.02958141231        0.01686070669       4.65833417e-08      4.495080562e-07     -1.544353537e-50 
                   1                   49          3.867532562                    0        -0.6502044986                    0        -0.1172396529                    0       -0.02553513099                    0     -1.409011459e-10                    0     -8.532440865e-50                    0     -2.387647659e-99                    0                    0                    0                    0                    0                    0                    0                    0       -0.08076348733        -0.0693701401       -0.07012913717        -0.0117157118       -0.02310499366     -1.751431946e-05     -1.423304317e-06     -1.195590497e-28         -0.188951789        -0.1682599039          -0.15537907        -0.0368283567       -0.02427214672     -1.303379557e-07        3.7401477e-07     -2.001085964e-50 
                   1                    2          2.752302124                    0         0.1955190183                    0        0.03525441901                    0       0.007678513073                    0      4.236952186e-11                    0       2.56573811e-50                    0     7.179749254e-100                    0                    0                    0                    0                    0                    0                    0                    0        0.03688164066        0.02982464821        0.03431542692       0.002830196711        0.01998508534      5.024294345e-06      1.534385153e-05      1.609477288e-29        0.05956460669        0.05177434886        0.05053345003       0.009922240292        0.01502929793      2.300610407e-08      7.688905344e-07     -1.567113161e-50 
                   0                   25          2.660715469                    0       -0.04420219121                    0      -0.005806502258                    0     -0.0004196623195                    0     -2.371209515e-16                    0     -1.006352058e-72                    0    -1.099491012e-143                    0                    0                    0                    0                    0                    0                    0                    0      -0.002850096765      -0.001937552491      -0.002764581505     -9.684923744e-05      -0.003163375404     -3.701416177e-09     -0.0005626196147      5.241442007e-48       -0.00533800198      -0.004625094969      -0.004620823667     -0.0007860331132      -0.001343246957      1.489643571e-08      2.842837536e-05      6.431497808e-50 
                   1                   26           5.56307776                    0        -0.4716094893                    0       -0.06195171526                    0      -0.004477532148                    0     -2.529930932e-15                    0     -1.073714147e-71                    0    -1.173087533e-142                    0                    0                    0                    0                    0                    0                    0                    0        -0.0438600378       -0.03557692522       -0.04024698652       -0.00395532919        -0.0220143583     -3.932797272e-09     -0.0005295177214     -1.858813932e-47       -0.05079441789       -0.04195880524        -0.0459147258      -0.005351891233       -0.02253601744     -1.135235614e-07     -0.0001598273713     -5.028720173e-50 
                   1                    2          1.883181966                    0         0.1734516367                    0         0.0227850089                    0       0.001646776193                    0      9.304746212e-16                    0      3.948976437e-72                    0     4.314458407e-143                    0                    0                    0                    0                    0                    0                    0                    0        0.01889956108        0.01462916738         0.0177715429       0.001235353612        0.01227140924      1.601837653e-09       0.001282386421      5.098258675e-48        0.01853363762        0.01602196613         0.0161344794       0.002629098844       0.004718694332       1.09090398e-08     -0.0001013460591     -6.452198503e-50 
                   0                   24          6.163960291                    0        -0.4115739032                    0       -0.05662848109                    0      -0.004898387203                    0     -1.201625143e-14                    0     -2.571444351e-68                    0    -6.573496933e-136                    0                    0                    0                    0                    0                    0                    0                    0       -0.05155979558       -0.04060274433        -0.0482080579      -0.003673294097       -0.03121792055     -2.057942753e-07      -0.001568177208     -2.738816059e-42       -0.04781624418       -0.04146247364       -0.04108388988      -0.007386081725       -0.01132985308     -3.539870692e-07      3.160069564e-08     -7.241005267e-32 
                   1                   25           3.86392472                    0        -0.3757287283                    0       -0.05169654106                    0      -0.004471772336                    0     -1.096972095e-14                    0     -2.347489742e-68                    0     -6.00099186e-136                    0                    0                    0                    0                    0                    0                    0                    0       -0.04605252964       -0.03480705329       -0.04326386423      -0.003067096982       -0.03230451611     -1.661167026e-07      -0.008354260626      1.722201262e-42       -0.04438091474       -0.03862504972       -0.03787459122      -0.007139551708      -0.009956336211     -3.279161326e-07     -2.740546534e-07     -8.848341752e-32 
                   1                    2          2.492128862                    0         0.1398299581                    0        0.01923921336                    0        0.00166419997                    0      4.082454988e-15                    0      8.736340011e-69                    0     2.233309239e-136                    0                    0                    0                    0                    0                    0                    0                    0        0.02015653306        0.01429707085        0.01931543904      0.0009256587272        0.01647005671       6.42114057e-08       0.008173824805     -1.069425523e-43        0.01607633787        0.01434086589        0.01315714809       0.003204617767       0.002032684095     -3.057022586e-08      2.437788851e-07       1.07717631e-32 
                   0                  142          2.465012301       -0.06524052071                    0       -0.01409041536                    0      -0.005091060559                    0     -2.183542242e-09                    0     -2.356721204e-40                    0     -1.336264238e-79                    0        0.02041067845        0.01483061229        0.02318642095      -0.003056744513        0.01478327619      3.658032836e-05      1.172963308e-09     -3.938115738e-16       -0.04180349462        -0.0365798647       -0.03619229073       -0.00622152982      -0.006648993419     -0.0001345217448      7.837783254e-06      1.734671384e-11                    0                    0                    0                    0                    0                    0                    0                    0 
                   1                    5         -4.034657433         0.9037178626                    0          0.195181766                    0        0.07052185232                    0      3.024663363e-08                    0      3.264552499e-39                    0      1.851005859e-78                    0          0.122421915         0.1099957089        0.09804381348        0.02695276282        0.01494938864      0.0002453979868      2.031767245e-10      2.355430435e-16         0.4321417551          0.385846385         0.3437350844        0.09811848714         0.0826903239      0.0007636557515      3.184259867e-06      1.208638544e-10                    0                    0                    0                    0                    0                    0                    0                    0 
                   1                    1          3.506049423        0.07388381148                    0        0.01595716252                    0       0.005765541944                    0      2.472825502e-09                    0      2.668947814e-40                    0      1.513297165e-79                    0         0.0153735078        0.01330520759        0.01339159566       0.002175430612       0.003345687525      1.528896459e-05      1.628403395e-10      5.233634139e-17        0.03313396824         0.0332066657         0.0214198042        0.01290373427       -0.01284796723       4.65246181e-05      1.385903025e-05     -1.403565488e-11                    0                    0                    0                    0                    0                    0                    0                    0 
                   0                  152         0.4468602058                    0        0.01556639976                    0       0.001612710506                    0         4.116337e-05                    0      4.453560927e-21                    0      2.338780088e-92                    0     1.105116221e-181                    0                    0                    0                    0                    0                    0                    0                    0      0.0004232255948      0.0003423374665      0.0003935316819       3.24543281e-05      0.0002170134466       1.51955187e-10      1.953804305e-06      -1.56444205e-53      0.0007663101373       0.000615312003      0.0007168351599      5.405890332e-05      0.0004130056792      1.573716498e-10      6.326944411e-06     -6.619548374e-59 
                   1                   23         -5.809138345                    0        0.05471002496                    0       0.005668069264                    0      0.0001446737225                    0      1.565258719e-20                    0      8.219930038e-92                    0      3.88406677e-181                    0                    0                    0                    0                    0                    0                    0                    0       0.001467435659       0.001192583398       0.001361772777      0.0001154403157      0.0007228509863      4.904211028e-10      4.638284267e-06       5.27537118e-53       0.002715419451       0.002167184751       0.002549080786      0.0001817480936       0.001521349339      5.952943441e-10      3.419208722e-05      1.746025086e-57 
                   1                    2            5.3063515                    0        -0.0132165467                    0      -0.001369260975                    0     -3.494948159e-05                    0      -3.78126586e-21                    0     -1.985725455e-92                    0     -9.38291472e-182                    0                    0                    0                    0                    0                    0                    0                    0     -0.0003662353052     -0.0002960089045     -0.0003411336866     -2.742409386e-05     -0.0001882867511     -1.196076624e-10      -1.69524781e-06     -9.873808897e-54     -0.0006549347328     -0.0005259726138      -0.000612527225     -4.634085105e-05     -0.0003533603673     -1.240470631e-10     -4.964371468e-06       5.91379593e-58 