ITEM: TIMESTEP
0
ITEM: NUMBER OF ENTRIES
4722
ITEM: BOX BOUNDS xy xz yz pp pp pp
-0.026733 19.1744 2.95065e-05
0 11.54 -0.026733
0 30 1.98508e-05
ITEM: ENTRIES c_2[1] c_2[2] c_2[3] c_2[4] c_2[5] c_2[6] c_2[7] c_2[8] c_2[9] c_2[10] c_2[11] c_2[12] c_2[13] c_2[14] c_2[15] c_2[16] c_2[17] c_2[18] c_2[19] c_2[20] c_2[21] c_2[22] c_2[23] c_2[24] c_2[25] c_2[26] c_2[27] c_2[28] c_2[29] c_2[30] c_2[31] c_2[32] c_2[33] c_2[34] c_2[35] c_2[36] c_2[37] c_2[38] c_2[39] 
                   0                   25          2.708945952                    0       -0.04729930035                    0      -0.005882577599                    0     -0.0003408069749                    0     -3.197440612e-17                    0     -7.283932063e-77                    0    -6.734665383e-152                    0                    0                    0                    0                    0                    0                    0                    0      -0.002992905571      -0.002303321294      -0.002766780353     -0.0002489644446      -0.002087094862     -2.251726367e-09      -0.000233713295      1.926414118e-48      -0.004853456444        -0.0041107677      -0.004317623103     -0.0005865001798       -0.00160066883      8.235821947e-09     -2.315530331e-07      1.246057021e-37 
                   1                   26          5.855536948                    0         0.3930365379                    0        0.04888165187                    0       0.002831957185                    0      2.656933568e-16                    0      6.052629572e-76                    0     5.596212938e-151                    0                    0                    0                    0                    0                    0                    0                    0         0.0366120443        0.02815916821        0.03449612625       0.002314819392        0.02348265052      3.361210133e-09       0.004780724951      2.021719639e-48        0.03390008493        0.02864071346        0.03016457901       0.004092801132        0.01167324489      7.540077106e-08       4.33626465e-06       1.00260936e-35 
                   1                    2          2.461327087                    0         0.1205257934                    0        0.01498970021                    0      0.0008684278781                    0      8.147563786e-17                    0      1.856056399e-76                    0     1.716094916e-151                    0                    0                    0                    0                    0                    0                    0                    0        0.01240380049       0.008893769319        0.01187541214      0.0005786131876       0.009469944502      1.083376563e-09       0.005180229828      5.224413084e-49       0.009805626913       0.008538963155       0.008419042381       0.001519543082       0.002079599919      2.394189482e-08     -1.885336786e-06      4.791105611e-36 
                   0                   28          5.816190971                    0        -0.2728324612                    0       -0.03412958951                    0      -0.002025232972                    0     -2.306856394e-16                    0     -1.179523684e-75                    0    -2.982750287e-150                    0                    0                    0                    0                    0                    0                    0                    0       -0.03169579943       -0.02517940053       -0.02976505456       -0.00211278738       -0.01837821042     -4.348920498e-08      -0.000440622725     -2.708393702e-50       -0.02125606911       -0.01824659008       -0.01858168444      -0.002930433797      -0.005784168617     -5.664214488e-08     -2.660209212e-07     -3.101596744e-49 
                   1                   29          7.289162991                    0         0.3002471188                    0        0.03755898719                    0       0.002228731736                    0      2.538653145e-16                    0      1.298044178e-75                    0     3.282461977e-150                    0                    0                    0                    0                    0                    0                    0                    0        0.03481986233        0.02728227707        0.03255443414       0.002482187289        0.02095375569      2.910023903e-08       0.002772774106      -1.48506036e-50        0.02355435174        0.02027528166        0.02051106089       0.003334825607       0.006143555151      5.120015072e-08      4.240354476e-08      5.330021637e-49 
                   1                    2          2.477639649                    0         0.1226219663                    0        0.01533922084                    0      0.0009102217829                    0      1.036794763e-16                    0      5.301257513e-76                    0     1.340568874e-150                    0                    0                    0                    0                    0                    0                    0                    0        0.01569227568        0.01192791419        0.01491638779      0.0008501060672        0.01076819694      1.454714255e-08       0.002228847356      2.746929979e-52       0.008923647581       0.007858285323       0.007492038068       0.001570278578       0.001528036121      7.125870299e-09     -1.667272038e-08     -3.681171013e-49 
                   0                   88        -0.4559493938                    0         0.4948545208                    0        0.09844204125                    0        0.02854237762                    0      1.826050507e-09                    0      4.815413931e-44                    0      8.393020378e-88                    0                    0                    0                    0                    0                    0                    0                    0          0.099596783        0.08836341773        0.08192063792        0.01949823193        0.01713150961      3.337860501e-06     -1.791930711e-05     -3.024650317e-32         0.1842070669         0.1660483795         0.1457948792        0.04243692309        0.02271640108      0.0002221019918     -3.827468882e-07       2.71627048e-17 
                   1                   53          7.997765993                    0         0.6855101637                    0         0.1363694116                    0        0.03953907488                    0      2.529584209e-09                    0      6.670678054e-44                    0      1.162665093e-87                    0                    0                    0                    0                    0                    0                    0                    0         0.1046255847        0.09195507062        0.08592359806        0.02066950969        0.02428165919      2.128194798e-05      1.380075147e-05      2.610717019e-32         0.2720632001         0.2454181068         0.2167489154         0.0609779039        0.02689033668      0.0002658000721      2.500903801e-07      2.800903574e-16 
                   1                    2          2.705178735                    0         0.2922495535                    0        0.05813757658                    0        0.01685646339                    0      1.078422895e-09                    0      2.843871304e-44                    0      4.956722339e-88                    0                    0                    0                    0                    0                    0                    0                    0        0.06225415279        0.05291419311        0.05436704659       0.008702984013         0.0215289445      7.449078946e-06      9.650578458e-06      4.518810632e-33         0.1166965517          0.104744217        0.09386525409        0.02515583558        0.01373011301      0.0001273930729      4.200780258e-07     -6.754042396e-17 
                   0                   89         -3.340544264                    0           0.14953916                    0        0.01637853698                    0      0.0005445217975                    0      5.612161057e-19                    0      1.497792127e-86                    0     2.084723714e-171                    0                    0                    0                    0                    0                    0                    0                    0       0.004215254688       0.003279018827       0.004030631036      0.0002014110707       0.002750117332      2.105944888e-11      9.824035105e-05      3.351415508e-76       0.009706443172       0.007963798155        0.00886518015      0.0009215551715        0.00452978999      6.830570158e-09      3.283022521e-05     -6.278222543e-55 
                   1                   54          9.666913964                    0        0.04958076965                    0       0.005430420159                    0      0.0001805400659                    0      1.860751823e-19                    0      4.966036082e-87                    0     6.912049408e-172                    0                    0                    0                    0                    0                    0                    0                    0       0.001419500553       0.001112941903       0.001351325463      7.437751253e-05      0.0008872253363      1.881224128e-12      2.381870554e-05      -3.66942268e-76       0.003189131239       0.002579181302        0.00294152877      0.0002712581811       0.001654854632      2.772724272e-09       3.01380158e-05      6.099779959e-54 
                   1                    2          1.507972253                    0        0.07422996118                    0       0.008130165797                    0      0.0002702959672                    0      2.785828791e-19                    0      7.434912128e-87                    0     1.034839037e-171                    0                    0                    0                    0                    0                    0                    0                    0       0.002257944224       0.001727295442       0.002173788765      9.181115722e-05       0.001587003163      7.648051765e-12      0.0001018457855     -9.657322461e-77       0.004918612556        0.00403352464       0.004494886427      0.0004640911961        0.00229766578       3.40596896e-09      1.886391295e-05      7.654772587e-54 
                   0                   29          2.475841761                    0        -0.1036742492                    0       -0.03943210403                    0       -0.04192775534                    0      -0.000246694153                    0     -3.950562597e-17                    0     -1.136262963e-33                    0                    0                    0                    0                    0                    0                    0                    0        0.09279662302        0.06326677193         0.1230172246       -0.03522249383        0.04846249747      -0.001416852928      3.672138159e-09     -1.963564482e-12        -0.1872617624        -0.1799614632        -0.1224680607         -0.072519544      -0.004834033641      -0.004889690928     -9.132375389e-08      3.051359076e-05 
                   1                   30          9.726082249                    0         0.4059883694                    0          0.154416123                    0         0.1641890938                    0      0.0009660543259                    0      1.547040349e-16                    0      4.449605867e-33                    0                    0                    0                    0                    0                    0                    0                    0         0.2476813434         0.2609709439         0.1110958138         0.1526325001       -0.06361819863       0.001176313986     -6.355304485e-08     -5.910540547e-12         0.5063527989         0.5004669255         0.2928326706         0.2428916068      0.0002409862396        0.01482538319     -6.474377114e-06     -8.893154998e-06 
                   1                    2          2.034051239                    0         0.5047628159                    0         0.1919846058                    0         0.2041352796                    0       0.001201089338                    0      1.923425649e-16                    0      5.532167314e-33                    0                    0                    0                    0                    0                    0                    0                    0         0.5271748675         0.4696635654         0.4200615152         0.1200788127         0.1123643772       0.003220883089      5.532237264e-08       5.87292889e-12         0.5945697643         0.6020708774         0.2929876683         0.3416715398        0.01180832028        0.01308620839      5.227471452e-06      3.260597048e-05 
                   0                   20          5.862573063                    0        -0.7856402059                    0         -0.162036461                    0        -0.0518607701                    0     -7.782414782e-09                    0     -8.505513754e-42                    0     -1.554301921e-83                    0                    0                    0                    0                    0                    0                    0                    0        -0.2794059268        -0.2437216281        -0.2367939507       -0.04687314385       -0.06330561824     -1.226670712e-05      8.638847943e-06     -2.608886147e-33        -0.2761285474         -0.251674566        -0.2131420369       -0.06949035958          -0.02381471     -0.0001203275245     -2.789589153e-09     -3.273859281e-13 
                   1                   21          11.12339163                    0        0.06694217131                    0        0.01380666678                    0       0.004418908974                    0      6.631174672e-10                    0      7.247306776e-43                    0      1.324376536e-84                    0                    0                    0                    0                    0                    0                    0                    0        0.01480259885        0.01293713121        0.01206394171       0.003058404875       0.004479437971     -1.548283766e-07      5.423881953e-07      -1.46708162e-32        0.03056061898        0.02743479282         0.0244573851        0.00672902883       0.003926760188      1.384082238e-05     -2.794942307e-08       2.88194565e-14 
                   1                    2           2.03033919                    0         0.4406490246                    0        0.09088283409                    0        0.02908761235                    0      4.364992342e-09                    0      4.770563307e-42                    0      8.717751717e-84                    0                    0                    0                    0                    0                    0                    0                    0          0.205001206         0.1690765765         0.1870245202        0.01976809051        0.09442597287      6.792540687e-06      2.815369509e-05      1.399201155e-33         0.1402030244         0.1322190967        0.09821042303        0.04635716647       0.001316583941      2.054603678e-05      8.195676664e-09      1.727385662e-13 
                   0                  134        -0.4465655509                    0         0.5813546281                    0          0.226000049                    0         0.2471571443                    0       0.001871006513                    0      9.091838187e-16                    0      1.046886488e-31                    0                    0                    0                    0                    0                    0                    0                    0         0.2893778304         0.3106137657         0.1101456474         0.2103561072       -0.01436074175        0.03740306557       -0.00032518298     -1.377838207e-07         0.7882040685         0.7818276711         0.4602099249         0.3754183596       0.001481202451        0.05014569912     -4.685996021e-06       0.001148705828 
                   1                   45           11.8697068                    0       -0.09842006914                    0       -0.03826053732                    0       -0.04184231458                    0     -0.0003167508805                    0     -1.539197075e-16                    0      -1.77231995e-32                    0                    0                    0                    0                    0                    0                    0                    0       -0.04561464825       -0.04362566647       -0.02137519305       -0.02954964962       -0.03961939598      -0.008910518971      0.0004380994613      4.051414672e-06        -0.1445674059        -0.1459893529       -0.07965270418        -0.0730392129         0.0131351973      -0.006942479169     -4.155836784e-05      2.709600174e-05 
                   1                    2          3.109566368                    0         0.2499255864                    0        0.09715789989                    0           0.10625338                    0      0.0008043496639                    0      3.908600499e-16                    0      4.500587193e-32                    0                    0                    0                    0                    0                    0                    0                    0         0.1346010699         0.1244945633        0.08714765895        0.05840923914        0.06931925682        0.02585887543      0.0009498009227      6.330388651e-06         0.3712060177         0.3542426138         0.2370078819          0.152768385        0.04048076444        0.01079767217     -7.098913368e-06      -0.001434927804 
                   0                  101          2.756870619                    0        -0.1683871271                    0       -0.06613536913                    0       -0.07326656196                    0     -0.0006227059733                    0     -5.038789063e-16                    0     -1.097315369e-31                    0                    0                    0                    0                    0                    0                    0                    0        0.04152145611        0.01605390563        0.08861960985       -0.05444382412         0.0301857153      -0.002407482351     -1.552830051e-08     -1.060852358e-12        -0.2673274688        -0.2627829353        -0.1624444166        -0.1181375859          0.013630967       -0.01595934157       5.64771334e-07       0.008649243947 
                   1                   22          13.15460645                    0        -0.3981661734                    0        -0.1563828975                    0        -0.1732452303                    0      -0.001472443047                    0     -1.191465995e-15                    0     -2.594698709e-31                    0                    0                    0                    0                    0                    0                    0                    0        -0.2950968466        -0.3024717061        -0.1513218206        -0.1605963278          0.054925915     -0.0008869228301      8.318175801e-08      1.999546689e-12        -0.5102896287         -0.512705149        -0.2827938883        -0.2642476262      -0.003916947934       -0.04401121977       1.31635989e-06      -0.001479781481 
                   1                    2          2.196223779                    0         0.4624639991                    0         0.1816363745                    0         0.2012217194                    0       0.001710220369                    0      1.383869765e-15                    0      3.013703378e-31                    0                    0                    0                    0                    0                    0                    0                    0         0.4922781991         0.4374936361         0.3948087046         0.1097052149         0.1086137819       0.004006107314      7.027760255e-08       1.76142109e-12         0.5739278233         0.5893298401         0.2798006202         0.3417480426        0.01410299328          0.050749738      1.346414278e-06       0.006932999636 
                   0                  103          5.835396278                    0        -0.5500775037                    0       -0.08721425366                    0       -0.01256172443                    0     -2.106809885e-12                    0     -3.362778695e-58                    0    -5.730566964e-116                    0                    0                    0                    0                    0                    0                    0                    0        -0.1095719141       -0.09060298541       -0.09965324595       -0.01088011494        -0.0489024024     -8.741170092e-07         0.0017876331     -3.282687424e-44        -0.1022264376       -0.08885922531       -0.08668918007       -0.01711709099        -0.0256682829     -9.411156614e-06      3.108721917e-07     -2.134698107e-28 
                   1                   25          14.78071368                    0        -0.4822679698                    0       -0.07646311796                    0       -0.01101320686                    0     -1.847097762e-12                    0     -2.948239918e-58                    0    -5.024144557e-116                    0                    0                    0                    0                    0                    0                    0                    0       -0.09871403081       -0.07838620069       -0.08994724394      -0.009642383994       -0.05681886099     -2.115072013e-07      -0.006127401274      2.966171215e-44       -0.08957070332       -0.07864504636       -0.07481720406       -0.01624741649       -0.01861295376     -8.209774496e-06     -1.024805931e-06      8.557983993e-29 
                   1                    2           3.07910843                    0         0.1589023467                    0        0.02519381265                    0       0.003628738637                    0      6.085997564e-13                    0      9.714147961e-59                    0      1.65540407e-116                    0                    0                    0                    0                    0                    0                    0                    0         0.0373578443        0.02858972207        0.03513417126       0.002445317357        0.02561978366      1.849173195e-07        0.00358624731      2.368682608e-45        0.02811310612        0.02546086435        0.02216995605       0.006540854492       0.002523795733      1.227442677e-06      1.250054277e-06      3.222911943e-28 
                   0                  137        -0.1135392616                    0         0.3473791256                    0        0.05866586012                    0        0.01041001124                    0      1.009701974e-11                    0      3.208947068e-54                    0     7.195544677e-108                    0                    0                    0                    0                    0                    0                    0                    0        0.04751209112        0.03915534917        0.04285322559       0.005150485184        0.02297420444      4.577739047e-06      2.322704365e-05     -4.580399353e-30        0.08777468458        0.07787177484        0.07278209604        0.01644139032         0.0121813722      6.784633883e-08      7.349604922e-07     -4.717642369e-46 
                   1                   49          15.68794862                    0        -0.6850441346                    0         -0.115691187                    0       -0.02052891672                    0     -1.991168623e-11                    0     -6.328159078e-54                    0      -1.4189873e-107                    0                    0                    0                    0                    0                    0                    0                    0       -0.07023768796       -0.06026664671       -0.06113761158       -0.01002164169        -0.0204350132     -1.069845295e-05      7.710789408e-06     -3.753974686e-30        -0.1841657957         -0.161541852        -0.1561078776       -0.03073945382       -0.03260788204     -2.402623279e-07      2.836358442e-07      -4.89405282e-46 
                   1                    2           2.67394093                    0         0.2428864967                    0        0.04101900256                    0       0.007278650254                    0       7.05980749e-12                    0      2.243686664e-54                    0     5.031104375e-108                    0                    0                    0                    0                    0                    0                    0                    0        0.03372163399        0.02756985357        0.03101027789       0.002987282498         0.0167089843      3.710100433e-06      1.243406592e-05      7.775239179e-31        0.06659875346        0.05795436905        0.05649987471        0.01108303254         0.0158635834      3.738618919e-08      7.514278239e-07     -3.991557033e-46 
                   0                  104          2.708975458                    0       -0.02155492028                    0      -0.002390492889                    0      -8.41689459e-05                    0     -1.391418967e-19                    0     -2.358026045e-86                    0    -3.180609468e-170                    0                    0                    0                    0                    0                    0                    0                    0      -0.001084509247      -0.000773667732      -0.001057911148     -2.926405679e-05      -0.000929299858     -6.144308995e-10     -0.0003027687813      1.333915841e-56      -0.001357738735       -0.00115135766      -0.001201778873     -0.0001707486199      -0.000439619355     -2.201741145e-09     -5.505230959e-07      3.480510738e-43 
                   1                   26          17.39552774                    0        -0.1903787018                    0       -0.02111345934                    0     -0.0007434021764                    0     -1.228937677e-18                    0     -2.082670366e-85                    0    -2.809197591e-169                    0                    0                    0                    0                    0                    0                    0                    0       -0.01066112375      -0.007913237568       -0.01021268241     -0.0004918126035      -0.008060483951     -1.858494914e-09      -0.001995565453     -5.625819251e-56       -0.01192980587       -0.01006953339       -0.01065365654      -0.001396273893      -0.004061897847     -6.837049914e-09     -1.876169343e-06     -1.150896495e-42 
                   1                    2          2.461327087                    0         0.0549227998                    0       0.006091071583                    0      0.0002144658438                    0      3.545391233e-19                    0      6.008344764e-86                    0     8.104320257e-170                    0                    0                    0                    0                    0                    0                    0                    0       0.003271929478       0.002326942154       0.003160937557      0.0001218906873       0.002700522134      5.096962606e-10       0.001195770505      1.356913645e-56       0.003422243855        0.00292654388       0.003015222509      0.0004452869696      0.0009593877125      1.277594253e-09     -1.155570232e-08      5.108802736e-43 
                   0                   22            1.2823101                    0        0.06681590995                    0       0.008794057608                    0      0.0006404522534                    0       3.85068715e-16                    0      2.124296443e-72                    0     3.218039585e-143                    0                    0                    0                    0                    0                    0                    0                    0        0.00826005779       0.006128597219       0.007853713418      0.0004464206893       0.006439613542     -6.501639763e-09       0.001077895302     -6.483224941e-57       0.006065197346       0.005547875079       0.004719371267       0.001479601047      0.0002207725155      5.214449913e-09      6.903823932e-07     -1.240654992e-43 
                   1                   23          5.884932547                    0         0.4934660432                    0        0.06494813607                    0       0.004730032706                    0      2.843908513e-15                    0      1.568890046e-71                    0     2.376669362e-142                    0                    0                    0                    0                    0                    0                    0                    0        0.04222463508         0.0339344262        0.03871882109       0.003849003876        0.02326068982      2.985160166e-08      0.0008005658311      2.121814243e-57        0.05460965053        0.04716617456        0.04699590448        0.00835795248        0.01437852085      2.904297058e-07      8.514679424e-07      3.711992563e-44 
                   1                    2          5.279573458                    0       -0.09780162724                    0       -0.01287228064                    0     -0.0009374604431                    0     -5.636434039e-16                    0     -3.109433801e-72                    0     -4.71039769e-143                    0                    0                    0                    0                    0                    0                    0                    0       -0.01037219564      -0.007857766508      -0.009774093483     -0.0006576244865      -0.007537910752     -3.036933754e-09      -0.001028560896      1.039076911e-57       -0.01088655364      -0.009577004306      -0.009176475954      -0.001874754806      -0.001847612967     -7.550602251e-08     -5.025095769e-07     -1.473112276e-43 