ITEM: TIMESTEP
0
ITEM: NUMBER OF ATOMS
54
ITEM: BOX BOUNDS xy xz yz pp pp pp
-2.6732977382222696e-02 1.9174382766165152e+01 2.9506541316800546e-05
0.0000000000000000e+00 1.1540010645371973e+01 -2.6732977382222696e-02
0.0000000000000000e+00 2.9999991154072013e+01 1.9850802815995338e-05
ITEM: ATOMS id type c_1[1] c_1[2] c_1[3] c_1[4] c_1[5] c_1[6] c_1[7] c_1[8] c_1[9] c_1[10] c_1[11] c_1[12] c_1[13] c_1[14] c_1[15] c_1[16] c_1[17] c_1[18] c_1[19] c_1[20] c_1[21] c_1[22] c_1[23] c_1[24] c_1[25] c_1[26] c_1[27] c_1[28] c_1[29] c_1[30] c_1[31] c_1[32] c_1[33] c_1[34] c_1[35] c_1[36] 
1 1          2.267528716          4.861265994          1.994153546          4.322110246         0.7032553801          1.749132834      0.0003960498796       0.001402570032       3.68900405e-17      6.341554034e-16      2.182559693e-33      6.009902391e-31         0.5486092307         0.4986876459          0.419113553         0.1435207909        0.07228385307      0.0003278670541      0.0002388941492      1.587623361e-10           4.15856178          3.762707634          3.200586932          1.071328541         0.6765593373        0.03823223149        0.00866592667      1.172213401e-06          2.994573152          2.889980221           1.88556653          1.249007473         0.1352471172        0.05091791443      0.0002522574863       0.004126259622 
2 1          2.170634946          4.858039967          1.894525908          4.326563765         0.6044749388           1.75899665      8.042574525e-05       0.001150372274      2.487921943e-21       5.50464498e-17      5.879478001e-42      2.108273047e-33         0.4552530363         0.4097850298         0.3576341445           0.10788706        0.06905822755      8.023466097e-05      8.093438993e-05      1.259953348e-14          3.837142176          3.451409682          3.013918855         0.9162438833         0.6167699898        0.02044778279       0.002425366013      5.186787032e-08           2.99406465          2.894594943          1.871811237          1.263158124         0.1242422673        0.04859203437      0.0003106621892       0.002841094004 
3 1          2.198631812          4.932364818          1.924847788          4.399249685         0.6426312295          1.839808388      0.0001250103056       0.002090448415      4.577484886e-20      1.413077127e-15      3.522938229e-39       2.05677715e-30         0.4985372841         0.4519870115          0.385035805         0.1255586265        0.06392142556      0.0001983606377      0.0002773771085      1.789773401e-11          4.008086099          3.630543162          3.078441527           1.03711009         0.6201049019        0.02582764388       0.005801686674      8.787243924e-08          3.230259469          3.135748422          1.994347136          1.395943742         0.1207071798        0.07149366105      1.981459756e-05       0.003532812999 
4 1          2.317869333          5.001576954          2.046364441            4.4343864         0.7432409825          1.766960564      0.0003248085605       0.001552721234      5.492242033e-18      2.172888115e-16      4.885609303e-35      3.065069333e-32         0.6258708769          0.571208866         0.4756602066         0.1663745727        0.06939680942       0.001109730224        0.00071077996      3.958090559e-11          4.301372886          3.905586594          3.275781547          1.147772992         0.6754797391        0.04083090953       0.005843089203      4.665285984e-05          3.120070908          3.003577326          1.981714313          1.280982683          0.149683901        0.05241442051      0.0001058637828      0.0002941489987 
5 1          2.450004564          4.948863613          2.175248364           4.38633688         0.8177375891          1.737037581      0.0005679203396       0.001457304986      3.210243957e-17      3.256886466e-16      1.193445901e-33      8.148668195e-32         0.7267888817         0.6658109497         0.5478888162          0.198254286        0.07364412701       0.001470050417      5.143075182e-05      1.075170787e-11          4.621118105          4.204831922          3.498350477          1.256995113          0.711280447        0.04487723477         0.0101015968      1.394876679e-06          3.023935339          2.907541874          1.932492653           1.22758725         0.1404090529        0.04588587086      0.0001213885779       0.002263429167 
6 1          2.277170871          4.954876472          2.024978865          4.376639732         0.8009782854          1.674214863      0.0006872544767       0.001025361868      6.354352497e-17      6.463356751e-17      3.327153018e-33      3.097250191e-33         0.6530350567         0.6026564212         0.4796043714         0.1929120266        0.06339144756         0.0024746529       0.000153954478      1.587704074e-08          4.333173947          3.944107224          3.279332124          1.178912562         0.6495514302        0.03861740491       0.006161097985      0.0003787188628          2.917394813          2.787221005          1.907563082          1.133230247         0.1511645369        0.03372853255      0.0002845549871      6.224776727e-05 
7 1          2.081017948          4.947296084          1.809205008          4.398991275         0.5650620824          1.779273203      4.373572731e-05       0.002177073506       7.39090491e-22      1.422122788e-14      1.018019155e-42      2.950649101e-28         0.4177547842         0.3751829131         0.3287571681        0.09833155471        0.06741179561      4.343838139e-05      0.0001482516538      4.773716892e-11          3.674060549           3.29698434          2.898147068         0.8627208689         0.6182953713         0.0151380925       0.002428531849      3.262232707e-06          3.121859454          3.009455894          1.968786374          1.299079802         0.1538921195        0.05117141995      7.159011975e-05       0.001418659898 
8 1          2.291298686          4.988661927           2.01808601           4.44393792         0.7083788525           1.84991018      0.0001192817523       0.002139190556      1.514983877e-20      1.060411558e-15      3.715269728e-40      6.632199561e-31         0.6113566514         0.5588939601         0.4650217682         0.1619608292        0.05815363344       0.001314310916      0.0004003965427      2.411562554e-13          4.299253743           3.89390057          3.293032585          1.124555676         0.7013943341        0.03314674567        0.00659888379      7.514145188e-05          3.348209176          3.236141899          2.095515399           1.41254558         0.1414093793        0.06072047062      0.0001638463789      0.0002694269926 
9 1          2.437321081          4.912979395          2.160182144           4.34168191         0.7932186789          1.670809938      0.0002900542032       0.001110258169      3.826285917e-18      1.779879979e-16      2.403818774e-35      4.457759224e-32          0.745804373         0.6846449914         0.5639279825         0.2012832299        0.05551687154       0.001704047898      0.0004434051203      6.104694177e-14          4.511473139          4.079534585          3.470801037          1.161412831         0.7408858682        0.02983425264       0.009108657422      2.400599837e-06          2.818288832          2.707509353          1.806981537          1.136982869         0.1329908308        0.04173359251      6.062892811e-05       0.002111831792 
10 1          2.457689917           5.09607944          2.178274831          4.523295225         0.8139636752           1.80974772       0.000336802476       0.001432703912      3.911529302e-18      1.215450556e-16       2.40550851e-35      1.535365667e-32         0.7426613966         0.6814720974         0.5576677848         0.2051869723        0.07244933371       0.002974096602      5.380857042e-05      1.927328935e-09          4.768120082          4.336701539          3.615670141          1.290875277         0.7312991235        0.04774262952        0.01089302546      6.029319044e-07          3.310174529          3.183332588          2.115854441          1.343986288         0.1562112556        0.05612079141      6.621214321e-05       0.002710839782 
11 1          2.179614886          5.124020206          1.921088071          4.554054121         0.7063821904          1.849341998      0.0003658873242       0.001804009047      9.046768681e-18      9.194152639e-16      1.309104035e-34      8.499282147e-31         0.5235153997          0.480238345         0.3892066299         0.1493472014        0.06212496256        0.00160849751       0.000225204234      4.726271739e-09          4.263549808          3.872992973          3.239875043          1.145713372         0.6611349915        0.03997373419        0.01288458031      9.977453415e-05          3.421255425          3.296602438          2.165910653          1.413581934         0.1609692487        0.05806940432      0.0003216375925       0.001156202965 
12 1           2.01482029          5.169476764           1.75464899          4.622653641         0.5759750306           1.98380993      0.0002688805475       0.003036117521      8.947142693e-18      5.466182502e-15      1.308931356e-34      1.971474017e-29         0.3688185956         0.3333601439         0.2853730111        0.09258748315        0.05537040845      0.0001575145474      0.0001277322476      7.567643038e-21          3.830582514          3.461833559           2.95228837         0.9846824997         0.6668832997        0.04774696483       0.003229374452      4.180614437e-05          3.852171361          3.728529611          2.400188789          1.638703292         0.1638242308        0.08323660804      0.0002152152336      0.0001329188713 
13 1          2.235227878           4.94482742          1.970216669          4.374698006         0.7036146081          1.702356386      0.0002212790992       0.001234551118      8.603852563e-19      2.235417981e-16      1.226366898e-36      4.038500144e-32         0.5679058683         0.5180558254         0.4321541362         0.1503195291         0.0633898407      0.0006760898159      0.0001522446866      7.592622787e-10          4.067495336          3.668607356          3.147872863           1.02628532          0.698041713        0.02840532007       0.006264511011      3.005894233e-05          2.963626144          2.840008581          1.912795587          1.181236946         0.1596059097         0.0424005723      0.0001148670065      5.234810714e-05 
14 1          2.141132016          4.938256028          1.871880795          4.397629354         0.6182785833          1.796634673      0.0001234462654        0.00142366046      1.880948979e-20      1.687562803e-16      3.228095929e-40      3.631925043e-32         0.4566189283         0.4168184426         0.3473447129         0.1207894548        0.04906583116       9.81454979e-05      8.446058205e-05      7.996764141e-14          3.855901917          3.479565756          2.991750162         0.9638124942         0.6311653282        0.02702999156        0.00461627897      6.796849765e-07          3.141679645          3.038496366           1.96349215          1.327485937         0.1291505456         0.0570680902      0.0001384059717       0.003418681129 
15 1          2.199427991          5.017298858          1.918772215          4.470605986         0.6018717455          1.866017557      7.359639314e-05       0.002138411819      1.056039142e-20      1.604807701e-15      2.001554064e-40      2.101070212e-30          0.451314368          0.407463083         0.3533787009         0.1081298308        0.06027496971      6.074713199e-05      8.362681295e-05      1.458034158e-14          3.947430519          3.556060862          3.078838616         0.9685569197         0.6523885807        0.02541058234       0.004548595465      7.245524082e-07          3.346074734          3.245430001           2.06760816          1.442758713         0.1414030706         0.0721387207      0.0005368252945       0.005113758004 
16 1          2.268043372          5.015538054          1.988190309          4.457834737          0.668249305          1.822711676      0.0001734383729         0.0018153418      8.784611564e-19      7.233433353e-16      1.302632291e-36      4.567555326e-31         0.5371870541          0.487498294         0.4153072617         0.1346578202        0.06319360075      0.0002563470796      0.0002156296914      1.234440899e-10          4.123650456          3.730822216           3.17408299          1.059923368         0.6553193369        0.02975789393        0.01031554858      9.579460168e-07          3.233138568          3.128859467          2.014660357          1.373848383         0.1386525444        0.06511275263       0.001203927481       0.001663401995 
17 1          2.279862136          4.991788533           2.01396077          4.423815509         0.7344048405          1.756215615      0.0003216340542       0.001321938405       1.71822217e-18      8.076329413e-17      2.493769821e-36      3.707825431e-33         0.6129260612         0.5636844139         0.4593294873         0.1699554583        0.04905354008       0.001016633971      0.0001096204614      1.492862798e-12          4.218563796           3.82379733          3.223770892          1.113854685          0.686865949        0.04112208857       0.008639939812      7.094625151e-05          3.127729158          3.005099967          2.001528544          1.266486513         0.1540517335        0.04754989383      0.0001528518934      0.0006976660544 
18 1          2.394769139          4.879506614          2.118775303          4.332773665         0.7738246309           1.75947309      0.0003217326199       0.001518966186      1.691897174e-18      1.379919996e-16      2.417381774e-36      1.114034955e-32         0.6672285065         0.6125441673         0.5017105427         0.1833179272         0.0589749355        0.00152017712      6.366022409e-05      2.225849866e-11          4.417645674          4.012743217          3.358120961          1.187844506         0.7112912532        0.04969771183       0.007520020681      1.127894839e-06          3.015997703           2.91569419          1.887042407          1.270908294         0.1234687738        0.05457119253      0.0008546789627       0.001301036327 
19 2          2.731667792          3.716287813          2.413070708          3.207502157         0.9370410753         0.9041427249      0.0005423859572      8.751603601e-06      1.518737437e-17      1.729408704e-26      3.399588504e-34      6.186684225e-52         0.9551195424         0.8860147272         0.6684942922          0.320971925          0.131612439       0.002717193164       0.005317378744      8.411134156e-07          3.766213997          3.332177924          3.074018585         0.7652520561         0.7050940577       0.003554359714        0.03450469755      1.603077447e-07          1.169916958          1.080694741         0.8668522411         0.3349833716         0.0773007239      0.0003068602674      2.372980325e-06      1.669967024e-13 
20 2          2.410701977          3.290953868          2.159880127          2.817628143         0.9324292469          0.750884337       0.001031023156      8.592596434e-06      1.449676746e-16      9.919856261e-26      1.681913319e-32      2.080455728e-50          1.144218711          1.060350671         0.8280824357         0.3505190567         0.1029910822      0.0004392921833      9.256300783e-05      4.829974365e-18          3.246828883          2.880707522          2.616883631         0.6977293184         0.6471849787       0.005198138848        0.01705954037      8.335247971e-08         0.8981360864         0.8197167617         0.6904594105         0.2290238586        0.07576527914      0.0002755329072      6.636768576e-06      1.247313934e-14 
21 2          2.373879718          3.258079114          2.077682813          2.787632063         0.7352146642         0.7246301732      0.0001649588751      9.379555984e-06      3.870804175e-20      7.789661739e-25      1.404616144e-39      1.249973039e-48         0.7036513232         0.6425529921         0.5197298717         0.2049996051         0.1126260767       0.001174903639        0.00496622015      1.987688314e-13          2.845230179          2.505474274          2.345045914         0.5516153448         0.5807959229      0.0007682942414        0.02028077269      5.305076812e-10         0.8983300044         0.8221130123         0.6870001876         0.2329903083        0.06564547157      0.0001947246755      1.486290034e-06      9.825738507e-14 
22 2          2.403719351          3.018472509          2.168296689           2.55803039         0.9801191513         0.6107679139       0.001461966885      1.780804516e-06      8.180867991e-16      6.451659914e-30      6.459082328e-31      3.702275302e-59          1.169266495          1.089537761         0.8265041152          0.380951397         0.1098606237      0.0008159017146      0.0001406501625      4.754054255e-16          3.011312637          2.650919678          2.471236853         0.5969355293         0.6371126437       0.003623024189         0.0381337919       1.55323046e-07         0.7113728025         0.6454045613         0.5557388263         0.1714859539        0.06882567173      0.0001004693679      6.277340304e-06      1.088331397e-16 
23 2          2.682301743          3.695519592           2.34945829            3.2033952         0.8418919487         0.9320714011      0.0003376511734      1.114381265e-05      2.146997765e-18      9.974561904e-26      6.612065353e-36      2.080561018e-50         0.9363648364         0.8541914936         0.6929845628         0.2716125242         0.1549918532       0.001960641632       0.003599008256      5.050252423e-11          3.637138172           3.21071275          2.977408922         0.7292968964         0.7245219279       0.004593553878         0.0337727174      9.545551602e-05          1.198284975          1.104867359         0.8948285652         0.3352574133        0.07706779014      0.0005332174974      4.783975175e-06      3.739224329e-13 
24 2          2.447809022          3.318918691          2.197792539          2.842339583         0.9696365438         0.7638114117       0.001290132636      7.734611587e-06      3.296810318e-16      2.838009422e-26      7.392194199e-32      1.728123239e-51          1.399914828          1.281696055           1.05833767         0.3770897881          0.134316798      0.0001021604846      1.590088813e-05      1.012696618e-22          3.227802519          2.881239424          2.556202375         0.7453801107         0.6194190668       0.006829548625        0.01385085497      4.793161919e-11          0.921877079         0.8370527596         0.7187404228         0.2238218602        0.08763298747      0.0002455895597      2.013975043e-05      1.196027295e-14 
25 2          2.770366462          3.538537456          2.434617589          3.036742315         0.8938501446         0.8034818677       0.000395908126       2.89230367e-06      2.399536068e-18       4.25109488e-29      8.112205529e-36      2.288945947e-57         0.9687451867         0.8886812254         0.7003620236         0.3000913785         0.1556786268       0.001885237124       0.007915613316      6.944264773e-11          3.455616288          3.043731358          2.846411975         0.6724910277         0.6950108386       0.001719948312        0.03008563939      5.858853428e-07         0.9956602036           0.91490386         0.7516943654          0.269114564        0.06773867421      0.0001159431681      9.568561437e-06      1.858925223e-18 
26 2           2.19000423          2.701021589          1.965479365          2.271675369         0.8429452705         0.5049088442      0.0009320918853      8.497436466e-07      1.143366121e-15       2.52896863e-30      2.000128641e-30      1.596760715e-59          1.092657854         0.9988251299         0.8275011841         0.2928657529         0.1143380635      6.973357427e-05       3.33989237e-05      4.560487958e-25           2.46062585          2.147563541          2.046429835         0.4575508499          0.606329426       0.001692575483        0.02977708916      5.184847057e-12         0.5668006429         0.5103318415         0.4516769687         0.1266224363        0.06447899008      8.710000003e-06      7.763027423e-07      3.880751329e-22 
27 2          2.943412565          3.694018805          2.595264859          3.202193566         0.9913674436          0.936523057      0.0007464743851       1.85547513e-05      7.595724955e-17      4.564972858e-25        8.3713977e-33      1.952708247e-49          1.212402757          1.105348627         0.8927594682         0.3580446511         0.2202619288       0.004455693267       0.003917308564      1.562896735e-08          4.049353402          3.599577882          3.268119647         0.8644154237         0.7217712979       0.006020688472        0.03280069625      7.591296563e-06          1.176571658          1.089355205         0.8669753898         0.3424150567        0.06909749764      0.0006278207805      5.931675512e-06      8.605727861e-10 
28 2          2.317368445          3.183726744          2.074594357          2.718726622         0.8861955325         0.7119983506      0.0007878626723      5.540198379e-06      3.510971403e-17      2.260163573e-27      1.032719373e-33      1.044624546e-53          1.110882662          1.020228643         0.8263100759         0.3150934224         0.1165431397      0.0002672735931      6.533736359e-05      1.381075791e-19          2.986299876          2.650928396          2.401525782         0.6479014458          0.599898585       0.004756102039        0.01262058996       4.64955865e-08         0.8469822835         0.7682935662          0.661935485         0.2038455451        0.08275788324       0.000154260455      1.066112201e-06      1.032681416e-15 
29 2          2.587629051          3.530011454          2.274923674          3.038126385         0.8548128829         0.8363200154      0.0005194466808      1.000993598e-05      3.964644395e-17      3.348799155e-26      2.508686378e-33      1.574146815e-51         0.8999010715         0.8138627468         0.6724899524         0.2545431043         0.1841230219       0.003061116773        0.01232883114      5.244727438e-18          3.318252656          2.937119713          2.699853786         0.6838826016         0.6463035894        0.00307019062        0.01967144718      3.331770973e-05          1.120153308          1.030134057         0.8431982909         0.3056748948        0.07637596456      0.0002385859595      2.279408676e-06      1.940264539e-13 
30 2          2.248703096          2.609782669          2.021500558           2.18850897         0.8816628411          0.474996288      0.0009043837374      5.761680861e-07       1.75511162e-16      3.200646709e-31      3.441834471e-32      2.619609298e-61           1.20723759          1.099872112         0.9248875974         0.3116785055         0.1278499348      8.677397551e-05      6.014630816e-05      1.694740128e-25          2.423643165          2.123889834          2.003465242         0.4640883106         0.5678764872      0.0009814098424        0.01596745793      6.568710307e-11         0.5409578206          0.486279528         0.4327394941         0.1190118039        0.06377885416      1.037957601e-05      9.919563064e-07      1.811003505e-28 
31 2          2.323889277          3.136104097          2.047208272          2.671827158         0.7862316672         0.6621060592      0.0005141839548      1.814376457e-06      5.739135457e-17      1.546554647e-29      5.230653405e-33       4.26805641e-58         0.7456757225         0.6893604888         0.5294802525         0.2411935423          0.106200101      0.0007058966386       0.002473834801      2.830606079e-26          2.745967216          2.411958381          2.272248698         0.5226838373          0.592563922       0.001198631705        0.01655743375      1.110771365e-09         0.7967945345         0.7264438386         0.6154529858         0.1997986468        0.06513005386      6.844050996e-05      8.219088135e-06      1.579138295e-20 
32 2          2.364639101          2.744802432          2.134935353          2.306665039          0.954634243         0.5141580838        0.00120716258      7.937147448e-07      3.274041452e-16      5.606762665e-31      8.145510479e-32      7.953045019e-61          1.385481217          1.272802845          1.042098945         0.3788301021          0.110150969      5.901489775e-05       1.07439517e-05      1.786966079e-26          2.690853918          2.354899167          2.221075703          0.519723408         0.6609543864       0.002252216786        0.02882678916      8.311784359e-16         0.5775230223         0.5197371035         0.4606019867         0.1285817798        0.06659876196      1.298265386e-05      6.436141973e-06      3.829136143e-23 
33 2          2.737350263          3.986200594          2.409455142          3.472982105         0.9080334027          1.083159197      0.0009831573842      6.796117909e-05      2.961663107e-15      9.087359797e-22      1.326482304e-29      1.474484375e-42         0.8375368481         0.7728849824           0.59031094         0.2779476849         0.1349296416       0.004436966984        0.01023040584      3.622587075e-16          4.185200786          3.716173637          3.389647873         0.8804957119         0.7602456816       0.005491984076        0.02045704643       4.96190931e-07          1.529674289          1.425521356          1.099361461         0.4766321807        0.08846833823      0.0005069945903      4.693740703e-06       1.14807656e-13 
34 2          2.458170574          3.225721256          2.210061178          2.743118537          0.978075164         0.6875475739       0.001899685459      6.419891997e-06      1.450559956e-14      5.328374523e-26      2.952948833e-28      6.081001725e-51          1.308188544          1.213104324         0.9511909903         0.3949551031        0.09889547083      0.0001833007493      1.718507082e-05      3.085554787e-21          3.171631691          2.805781953          2.565865377         0.6716528022         0.6787583749       0.006719743246         0.0190520414      5.946527201e-12         0.8411751371         0.7618342326         0.6588957718          0.200766993        0.08874700892      5.301429183e-05      6.398012666e-06      3.337040156e-16 
35 2          2.484376573          3.365964139          2.176531088          2.891446306         0.7922666395         0.7683437855      0.0003827659927      3.330919997e-06      4.306872811e-18      2.725533963e-28      2.243917951e-35      1.688213249e-55         0.8608800495         0.7811727931         0.6432545088         0.2422981817          0.156960319      0.0007082157639       0.004465481553      8.838197488e-24          3.155348985          2.778989634          2.602583319           0.61018616         0.6456070234       0.002020446348        0.01613991263      6.030418473e-08          1.001983267          0.918168589         0.7624597022          0.264176009        0.07351990596      0.0001066776549      4.764795735e-06      7.502799064e-19 
36 2          2.391385126          3.173110038          2.156733823           2.70363834           0.97621431         0.6823561038       0.001411821103      5.307819793e-06      4.388415082e-16      2.145969499e-26      1.079826634e-31      1.000747717e-51          1.248731272           1.15458497         0.9114134521          0.373906376         0.1120627388      0.0004929374114      0.0003121458083      3.088586629e-20          3.250181418          2.867087152          2.639773383         0.6763375262         0.7205844833       0.003699756716        0.02884211943      6.168943562e-08         0.9129494034         0.8254121603         0.7198806703         0.2125077381        0.09491189482      7.460576068e-05      1.011377782e-06      2.110822286e-14 
37 2          2.598782246          3.633737691          2.287388536          3.139559859         0.8836238537         0.8926881559      0.0006870421364      9.984360021e-06      3.945909934e-17      5.359520392e-26       1.33556934e-33      6.081082927e-51         0.9785003242         0.8980561062          0.710494255         0.2992687874         0.1560902234       0.001473719674       0.001624428667      1.422739514e-13          3.612716632          3.195039826          2.937158866          0.747486657          0.720246661       0.006095921667        0.03339511733      8.305034964e-07           1.17834609          1.082081973         0.8895984896         0.3189639704        0.08745338407      0.0006156758353      6.298100773e-06      3.282519035e-14 
38 2          2.463814485          3.264122422          2.209805109           2.79606614         0.9536684304         0.7407968132        0.00118417126      5.623923291e-06      7.342405895e-16      7.308184223e-27      7.921999505e-31      1.169563568e-52          1.363533193          1.249390153          1.025183672         0.3738538366          0.138520344      0.0001239116815      3.440970867e-05      7.579050888e-24          3.269153149          2.903543384          2.621127844          0.718530459         0.6672546587        0.00548759115        0.01363513913      3.816920542e-10         0.9083121685           0.82555752         0.7075086947         0.2211457071        0.08049811515        0.00018583368      7.227860527e-06      2.413442753e-14 