ITEM: TIMESTEP
0
ITEM: NUMBER OF ENTRIES
4746
ITEM: BOX BOUNDS xy xz yz pp pp pp
-0.026733 19.1744 2.95065e-05
0 11.54 -0.026733
0 30 1.98508e-05
ITEM: ENTRIES c_2[1] c_2[2] c_2[3] c_2[4] c_2[5] c_2[6] c_2[7] c_2[8] c_2[9] c_2[10] c_2[11] c_2[12] c_2[13] c_2[14] c_2[15] c_2[16] c_2[17] c_2[18] c_2[19] c_2[20] c_2[21] c_2[22] c_2[23] c_2[24] c_2[25] c_2[26] c_2[27] c_2[28] c_2[29] c_2[30] c_2[31] c_2[32] c_2[33] c_2[34] c_2[35] c_2[36] c_2[37] c_2[38] c_2[39] 
                   0                  186        -0.4687642469                    0       0.002534925016                    0      0.0002577760908                    0      6.001603017e-06                    0      2.781110622e-22                    0      6.096326702e-95                    0     7.652458096e-186                    0                    0                    0                    0                    0                    0                    0                    0      8.696882273e-05      7.025825859e-05      7.970333066e-05      7.960313461e-06        4.4839655e-05      2.457053495e-11      1.863192112e-06      4.939318224e-59      0.0001266315175      0.0001052971115      0.0001155165767      1.214091683e-05      5.012332209e-05      2.268955564e-12      4.132344128e-08      4.734980966e-64 
                   1                   45        -0.3032743004                    0        0.01672206611                    0        0.00170046404                    0      3.959060003e-05                    0      1.834607154e-21                    0      4.021546102e-94                    0     5.048074771e-185                    0                    0                    0                    0                    0                    0                    0                    0      0.0005763422241      0.0004635513903      0.0005290297241      5.184810721e-05      0.0003054272163      1.544543862e-10       1.65558533e-05      1.139389455e-58      0.0008337262196       0.000694284563      0.0007594628725      8.112028746e-05      0.0003246432605      1.300842294e-11      2.295076418e-07      2.087235902e-63 
                   2                    2           3.04202988                    0       0.007211024743                    0      0.0007332878715                    0       1.70725791e-05                    0      7.911341513e-22                    0      1.734203671e-94                    0     2.176871676e-185                    0                    0                    0                    0                    0                    0                    0                    0      0.0002478540422      0.0001992858375      0.0002275695953      2.222911943e-05      0.0001316566744      6.775793348e-11      7.138582831e-06      7.074798888e-59       0.000359561424      0.0002993557694      0.0003275577786      3.495901297e-05      0.0001403642368      5.448715442e-12      1.115815897e-07       1.06558302e-63 
                   0                   84        -0.1392932262                    0         0.1320497279                    0         0.0342091103                    0        0.01893989556                    0      3.387301125e-07                    0      4.617151111e-31                    0      1.951744278e-61                    0                    0                    0                    0                    0                    0                    0                    0        0.07730505009        0.07555065409        0.05221219409        0.02760722229       -0.01860329265     -2.300665549e-05     -2.041532865e-06     -1.707848937e-31        0.05191670957         0.0462277315        0.04073523134        0.01243684645        0.01237427883      2.963746755e-05      3.561631396e-06      1.007873534e-17 
                   1                   49          3.727098256                    0         0.4358073301                    0         0.1129012627                    0        0.06250785552                    0      1.117920258e-06                    0      1.523811014e-30                    0      6.441395043e-61                    0                    0                    0                    0                    0                    0                    0                    0         0.2673806237         0.2446807557         0.2047805116         0.0690535514        0.01936020975     -5.384370184e-06     -2.346103405e-06     -1.362726638e-31         0.1684027743         0.1544304367         0.1260567646         0.0470319329         0.0183035238      0.0001549110324     -1.658845339e-06     -5.483004927e-18 
                   2                    2          2.364526358                    0         0.7541413138                    0         0.1953696065                    0         0.1081665062                    0      1.934501313e-06                    0      2.636873592e-30                    0      1.114649017e-60                    0                    0                    0                    0                    0                    0                    0                    0         0.4635813123         0.4129468879         0.3757241939        0.09691604868        0.07491339544      7.771207078e-05      2.038884152e-06      1.447455346e-31         0.2990117953         0.2790166429         0.2152419915        0.09271081614         0.0127028374      0.0001703959604      6.859629629e-07      6.122687901e-17 
                   0                    8          2.588800391                    0        -0.3107126095                    0       -0.04904400663                    0       -0.00695771484                    0      -1.02787743e-12                    0     -9.485081754e-59                    0     -8.15551968e-117                    0                    0                    0                    0                    0                    0                    0                    0        -0.0550395845       -0.04767164182       -0.04825215992      -0.007481990732       -0.02016265521     -1.869524747e-06        0.01055303928      1.815659228e-35       -0.05473523806       -0.04691764556       -0.04750477099      -0.007939634829       -0.01629189639     -7.537131754e-07     -2.799721363e-06      -1.31099693e-33 
                   1                    9          2.113519771                    0         0.4984573529                    0         0.0786783187                    0          0.011161839                    0      1.648961282e-12                    0      1.521634011e-58                    0     1.308340449e-116                    0                    0                    0                    0                    0                    0                    0                    0         0.0994994397        0.07745050122        0.09079414446       0.009630653463        0.06397099191      3.774895332e-06        0.01268689998      3.989471142e-36         0.0833280595        0.07284374589        0.07036516049        0.01423166604         0.0178067081      7.834636286e-07      7.932472886e-07      3.632696815e-33 
                   2                    2          2.399067956                    0         0.4568228483                    0        0.07210657731                    0        0.01022952727                    0      1.511228966e-12                    0      1.394536923e-58                    0     1.199059071e-116                    0                    0                    0                    0                    0                    0                    0                    0        0.09089836544        0.06986835941         0.0844815609       0.007095837708        0.06203242854      4.218830725e-06        0.01111112142      1.568319829e-35        0.07650009397        0.06727777708        0.06459761697        0.01304738386        0.01280994897       9.30770066e-07     -1.347552928e-06      2.836513423e-33 
                   0                   85         -3.337983003                    0           0.40269654                    0         0.0561736793                    0       0.005118510365                    0      1.924366773e-14                    0      2.538020945e-67                    0     6.267878813e-134                    0                    0                    0                    0                    0                    0                    0                    0        0.05708804565        0.04435712759        0.05384366784        0.00355894303        0.03728606457      1.096458416e-06        0.00274954335     -6.709968114e-33        0.04931046438        0.04243807416        0.04288615131       0.007038413893        0.01305440228      1.601823442e-08      2.768342009e-07      9.921690527e-44 
                   1                   50          5.215503907                    0         0.0396912307                    0       0.005536681454                    0      0.0005044989355                    0      1.896725647e-15                    0      2.501565443e-68                    0     6.177848561e-135                    0                    0                    0                    0                    0                    0                    0                    0       0.005458709347       0.004204587706       0.005223643388      0.0002561760335       0.003869713751     -6.390463916e-08     -6.174747693e-05      3.380160931e-32       0.005082760863       0.004356572112       0.004447555999      0.0006958184037       0.001433991644      9.174485868e-10      1.156070319e-08      7.993390027e-45 
                   2                    2          1.517488433                    0         0.4350515319                    0        0.06068700076                    0       0.005529761381                    0      2.078981638e-14                    0       2.74194037e-67                    0     6.771476803e-134                    0                    0                    0                    0                    0                    0                    0                    0         0.0679884298        0.04904721881         0.0652190794       0.003037404171        0.05185714003      8.391076399e-07         0.0256965262      6.210882597e-32        0.05128078644        0.04498861235        0.04340019695       0.008634828993       0.009242554139      4.223395728e-09     -6.553660263e-08      1.378464532e-44 
                   0                   88        -0.3786282387                    0          0.192800268                    0        0.05545198565                    0        0.03785402144                    0      4.300371349e-06                    0      1.972379824e-26                    0       2.12834001e-52                    0                    0                    0                    0                    0                    0                    0                    0         0.1359603628         0.1353760083        0.08522597311        0.05577442578       -0.03631127437     -8.452209499e-05     -1.244362301e-06     -2.718039081e-32        0.06737968476        0.06240259371        0.04876765324        0.02094981331       0.007249142987       0.000502038887     -9.592500826e-07      2.265427875e-14 
                   1                   53          7.158534082                    0        -0.3776456392                    0        -0.1086160345                    0       -0.07414619427                    0     -8.423310321e-06                    0      -3.86337969e-26                    0     -4.168865178e-52                    0                    0                    0                    0                    0                    0                    0                    0        -0.2931286409        -0.2689128992        -0.2214871607        -0.0790499328       -0.02438021389      4.634072475e-05      1.253687231e-06      2.380170207e-32        -0.1639280437        -0.1531107819        -0.1148418726       -0.05495410584       -0.01657984139     -0.0007551517842      1.837384308e-07      1.998628812e-13 
                   2                    2          2.585262994                    0         0.7197556005                    0         0.2070115236                    0         0.1413153842                    0      1.605400446e-05                    0      7.363223297e-26                    0      7.945448717e-52                    0                    0                    0                    0                    0                    0                    0                    0         0.5001353892         0.4527504739         0.3863442494         0.1261563951         0.0711742182      0.0001589359588      1.127917777e-06      2.206775561e-32         0.2944673723         0.2773438926         0.2055660242        0.09899932771       0.009565680338       0.001259432394      3.972629136e-07      1.969832222e-13 
                   0                   25          3.108816434                    0        -0.5534515123                    0        -0.1146961277                    0       -0.03718405035                    0     -6.235679118e-09                    0     -1.107590086e-41                    0     -3.712704586e-83                    0                    0                    0                    0                    0                    0                    0                    0        -0.2134583265        -0.1895514204        -0.1750672305       -0.04232766922       -0.03520787569     -1.141155057e-05      8.800327396e-06      1.529659499e-29        -0.1461148677        -0.1323902502         -0.114064209       -0.03538871198       -0.01609388046     -1.920969881e-05      1.192796997e-06     -7.846208304e-31 
                   1                   26          5.729217229                    0       -0.02946099948                    0      -0.006105435587                    0      -0.001979359102                    0     -3.319339367e-10                    0     -5.895857223e-43                    0     -1.976324673e-84                    0                    0                    0                    0                    0                    0                    0                    0       -0.01299954353       -0.01048816538       -0.01147877736       -0.00168971431      -0.008371815633      2.924811495e-07     -1.108469203e-05      1.735085803e-30       -0.01462842386       -0.01251799401       -0.01268994085      -0.002144037489      -0.004610122875      2.543229112e-06     -9.115610287e-07      3.760062746e-30 
                   2                    2          2.116513931                    0         0.7143469648                    0          0.148039763                    0        0.04799393066                    0      8.048471008e-09                    0      1.429580729e-41                    0      4.792035424e-83                    0                    0                    0                    0                    0                    0                    0                    0         0.3228103471         0.2728432946         0.2862721389        0.04025472518         0.1142490467      5.960520893e-05      1.214586246e-05      1.515077687e-29         0.1640345397         0.1530181908         0.1183716839        0.05047924177       0.006369334585       2.25786837e-05      1.158519411e-06      2.099648322e-31 
                   0                    2          5.920235993                    0         -0.233530322                    0       -0.02671847999                    0      -0.001082517571                    0     -5.621960094e-18                    0     -9.042995647e-83                    0    -3.365139835e-164                    0                    0                    0                    0                    0                    0                    0                    0       -0.02214062256       -0.01769711939       -0.02075921011      -0.001509377995       -0.01236265296     -6.365171427e-10     -0.0002042283295     -7.770312301e-65       -0.01384773586       -0.01155237373        -0.0125533652      -0.001416002669      -0.005399064493     -1.490665565e-08     -2.695028703e-06     -8.561218041e-49 
                   1                    3          4.209610952                    0        0.05849495594                    0       0.006692477006                    0      0.0002711503032                    0      1.408195326e-18                    0      2.265100426e-83                    0     8.429042733e-165                    0                    0                    0                    0                    0                    0                    0                    0       0.005645575832        0.00458965036       0.005239713309      0.0004432916665       0.002788458652      -6.22316423e-11     -4.603467781e-06     -1.123218392e-64       0.003414103849       0.002844400787       0.003102549414      0.0003405742797       0.001336955202      2.652187357e-09      9.190154527e-07      2.939854297e-48 
                   2                    2          3.230931963                    0        0.09988639421                    0        0.01142812035                    0      0.0004630181465                    0      2.404644148e-18                    0      3.867901266e-83                    0     1.439349208e-164                    0                    0                    0                    0                    0                    0                    0                    0       0.009297144886       0.007461483077       0.008701709905      0.0006505995968        0.00507283816      3.423962611e-10      4.765341673e-05      2.153444055e-65       0.006020170564       0.005008563508       0.005473871794      0.0005975126176       0.002415514404      5.836191969e-09        1.1918328e-06      5.834678296e-50 
                   0                   80        -0.4687347403                    0        0.02507820256                    0       0.002748981202                    0      9.173900848e-05                    0      9.755182131e-20                    0      2.940137856e-87                    0     4.750565249e-172                    0                    0                    0                    0                    0                    0                    0                    0       0.001000656205       0.000850611723       0.000898408928      0.0001116769564      0.0003013949112      1.121553091e-09     -5.834968269e-06       3.08034622e-48       0.001589555869       0.001270174566        0.00148732272      0.0001117391003       0.000876168126      4.184739922e-10      2.670636946e-05     -2.185694306e-52 
                   1                   45          11.23671649                    0        -0.1587200016                    0       -0.01739830834                    0     -0.0005806163953                    0      -6.17405701e-19                    0     -1.860813924e-86                    0    -3.006633836e-171                    0                    0                    0                    0                    0                    0                    0                    0      -0.006467326748      -0.005385156556      -0.005829395993     -0.0006982945816      -0.002567798451     -7.683137014e-09     -1.784180208e-05     -9.720324392e-49       -0.01026998663      -0.008337078739      -0.009522442138     -0.0008167954649      -0.005071642116     -1.144742318e-09     -6.897398479e-05     -3.531478762e-52 
                   2                    2           3.04202988                    0        0.07134156427                    0        0.00782020237                    0      0.0002609758157                    0      2.775118956e-19                    0      8.363997911e-87                    0     1.351423633e-171                    0                    0                    0                    0                    0                    0                    0                    0       0.002828667646       0.002352914416       0.002552406507      0.0003023683935       0.001133655108      3.388850198e-09      8.166894522e-06      2.608290773e-48       0.004618619042        0.00372021146       0.004288859765      0.0003604744268       0.002401433526      5.547976364e-10      6.965015006e-05      4.361943227e-54 
                   0                   89         -3.328998375                    0        0.02072142598                    0       0.002124072202                    0      5.145488033e-05                    0      3.461801907e-21                    0      3.118613398e-93                    0     1.923696778e-183                    0                    0                    0                    0                    0                    0                    0                    0       0.001015242899      0.0008062927455      0.0009545505313      6.625924958e-05      0.0005724612657        1.4885189e-10      3.008876309e-05      1.343461836e-52       0.000969738816      0.0007971613343      0.0008878382181      8.953227809e-05      0.0004320651039      5.646477193e-11      3.452125671e-06      1.761567084e-53 
                   1                   54          9.163433824                    0       -0.01975016408                    0       -0.00202451195                    0     -4.904306924e-05                    0     -3.299539122e-21                    0     -2.972436664e-93                    0    -1.833528592e-183                    0                    0                    0                    0                    0                    0                    0                    0     -0.0009757489614     -0.0007749604287     -0.0009180717354     -6.295831903e-05     -0.0005508944631     -1.316705813e-10     -2.689989899e-05     -3.337136229e-52     -0.0009211525881      -0.000757629041       -0.00084319238     -8.522390064e-05      -0.000408558223     -5.935880559e-11     -3.035122772e-06     -1.091443165e-53 
                   2                    2          1.740368279                    0        0.02120932714                    0       0.002174085039                    0      5.266642319e-05                    0       3.54331257e-21                    0      3.192043436e-93                    0     1.968991628e-183                    0                    0                    0                    0                    0                    0                    0                    0       0.001046944886      0.0008299368233      0.0009854423612      6.713906953e-05       0.000596398819      1.430144659e-10      3.357160842e-05      3.247902726e-52       0.000990490789      0.0008159099526      0.0009057806719       9.25978997e-05      0.0004329282307      5.352376465e-11      2.845384083e-06      2.450556075e-53 
                   0                   29          2.839768732                    0        -0.1389034558                    0       -0.01662185978                    0     -0.0008189195615                    0     -2.071530167e-17                    0     -2.082529073e-79                    0    -2.270827622e-157                    0                    0                    0                    0                    0                    0                    0                    0       -0.01032677086       -0.00796989145      -0.009800283407      -0.000577064987      -0.007127080763     -2.970867897e-08     -0.0002439065855     -9.059445755e-42       -0.01025227658      -0.008819295019      -0.008983495651       -0.00138767704      -0.002556194563     -2.200246467e-10     -2.334073688e-08      3.705859894e-68 
                   1                   30          9.903163672                    0        -0.2482184376                    0       -0.02970301956                    0      -0.001463397242                    0     -3.701794017e-17                    0       -3.7214489e-79                    0    -4.057935643e-157                    0                    0                    0                    0                    0                    0                    0                    0       -0.02028640231       -0.01478699469       -0.01941937625     -0.0009518042842        -0.0154636492     -6.341013322e-08      -0.006241193206      2.910910007e-42       -0.01731215839       -0.01501203085       -0.01499129781      -0.002539297567      -0.003738503625      -2.64790549e-10     -9.707851652e-10     -2.233333186e-68 
                   2                    2          2.181150063                    0         0.1955354668                    0         0.0233987203                    0       0.001152799387                    0      2.916109005e-17                    0       2.93159225e-79                    0     3.196661569e-157                    0                    0                    0                    0                    0                    0                    0                    0        0.01591845327        0.01155021883        0.01527838494      0.0007021911647        0.01227299491      4.455459975e-08       0.005089623246      8.044593785e-42         0.0137761997        0.01194236988        0.01193073476        0.00201916055        0.00299752624      9.979148048e-11      1.735697489e-08      2.640621084e-68 
                   0                  191         -2.358075168                    0        0.03226836326                    0       0.003368074555                    0      8.914398104e-05                    0      1.330318559e-20                    0      2.300689224e-91                    0     4.422877535e-180                    0                    0                    0                    0                    0                    0                    0                    0      0.0008330665735      0.0006650902396      0.0007774321284      6.091656443e-05      0.0004726400528      4.994848117e-10      1.055603494e-05      7.039535496e-46       0.001728523071       0.001414751951        0.00160283682      0.0001372024112      0.0008013393053      1.054155247e-10      9.662439268e-07      1.188266801e-59 
                   1                   52         -0.172817706                    0        0.06679701268                    0       0.006972070971                    0      0.0001845321867                    0      2.753821287e-20                    0      4.762533694e-91                    0     9.155562198e-180                    0                    0                    0                    0                    0                    0                    0                    0        0.00175890532       0.001404650436       0.001639927875      0.0001302832494      0.0009953909374      8.926238763e-10      2.370759639e-05      9.765400312e-46       0.003573884143       0.002924570191       0.003314200609      0.0002834783996       0.001659128691      2.190309596e-10      2.303147259e-06      2.411891013e-59 
                   2                    2          5.828304728                    0      -0.002859297201                    0     -0.0002984448288                    0     -7.899041344e-06                    0     -1.178794258e-21                    0     -2.038638962e-92                    0    -3.919108402e-181                    0                    0                    0                    0                    0                    0                    0                    0     -0.0001071855655     -8.228370157e-05     -0.0001016280925     -6.094468735e-06      -7.46035337e-05     -3.021135967e-11     -5.337934413e-06     -1.749978196e-46     -0.0001565488413     -0.0001298220192     -0.0001430485023     -1.475105844e-05     -6.436030697e-05      2.552063698e-12     -3.299923477e-08      -1.22428203e-60 
                   0                   74         -4.115700662         0.5737850517                    0        0.08531776308                    0       0.009826877094                    0      2.556861323e-13                    0      1.331038732e-62                    0      1.00851947e-124                    0        0.09039568437        0.07139737582        0.08568933198       0.005145771035        0.05442337615      2.555847503e-06       0.001227595932       1.36163306e-27        0.08886749238        0.07615780515        0.07635959607        0.01374679626        0.02774237044      3.300787866e-07      7.085538457e-05     -4.029839982e-47                    0                    0                    0                    0                    0                    0                    0                    0 
                   1                   22          3.454013682         0.2695030871                    0        0.04007319547                    0       0.004615619918                    0      1.200941045e-13                    0      6.251801896e-63                    0     4.736950008e-125                    0        0.04470576051        0.03416260238        0.04277537446       0.002111755287         0.0310770381      4.862379103e-07       0.002796776299       1.40979368e-27        0.04071782803        0.03534997526        0.03465550125       0.006658019777         0.0102774305      2.185517732e-07     -7.371424074e-05      1.714958028e-46                    0                    0                    0                    0                    0                    0                    0                    0 
                   2                    1          3.687816897         0.2393808258                    0         0.0355942291                    0       0.004099733772                    0      1.066712305e-13                    0       5.55304029e-63                    0     4.207502842e-125                    0        0.03252263669        0.02705056239        0.03007309189       0.002673801803        0.01376671968      4.120244256e-07      -0.001273947371      1.275137877e-27        0.03728727451        0.03061929077         0.0331482326       0.004555974089        0.01827935592      1.889373737e-07      0.0003290024366     -2.396955701e-47                    0                    0                    0                    0                    0                    0                    0                    0 