ITEM: TIMESTEP
0
ITEM: NUMBER OF ATOMS
54
ITEM: BOX BOUNDS xy xz yz pp pp pp
-2.6732977382222696e-02 1.9174382766165152e+01 2.9506541316800546e-05
0.0000000000000000e+00 1.1540010645371973e+01 -2.6732977382222696e-02
0.0000000000000000e+00 2.9999991154072013e+01 1.9850802815995338e-05
ITEM: ATOMS id type c_1[1] c_1[2] c_1[3] c_1[4] c_1[5] c_1[6] c_1[7] c_1[8] c_1[9] c_1[10] c_1[11] c_1[12] c_1[13] c_1[14] c_1[15] c_1[16] c_1[17] c_1[18] c_1[19] c_1[20] c_1[21] c_1[22] c_1[23] c_1[24] c_1[25] c_1[26] c_1[27] c_1[28] c_1[29] c_1[30] c_1[31] c_1[32] c_1[33] c_1[34] c_1[35] c_1[36] 
1 1          2.413449662          4.923615809           2.13465275          4.355072082         0.7645886563          1.703024928       0.000155752313       0.001037098127      2.914137056e-20      4.062462799e-17      7.688909056e-40      2.169496773e-33         0.6331792002         0.5772710225         0.4824626149         0.1672663224        0.07516064391       0.002664016937      0.0002965442822      6.326150543e-09          4.408405947          3.995467099          3.381764613          1.147214701         0.6814870565        0.03505834747       0.005169242464      5.359394462e-05          2.901322991          2.784464862          1.867615868           1.16269326           0.14654901        0.04568546892       4.83348441e-05       0.004100916351 
2 1          2.333921451          5.132185442          2.057862089          4.556255599          0.745969849          1.804710363      0.0004245137833       0.001103584529      6.305549827e-17      6.972163978e-17      6.331047535e-33      5.493261555e-33         0.6002875316         0.5447854498          0.462261257         0.1530219199        0.07583028784      0.0008009680355      0.0004439836177      6.711153425e-08          4.452662196          4.045783906          3.385978015           1.19285805         0.6817444079        0.03887560362       0.007363589417      7.361905676e-06          3.356226439          3.210449417          2.190603231          1.308594277         0.1593071427         0.0464421607       1.77033081e-05      0.0001309301606 
3 1          2.141805145          5.063261364          1.894694665          4.490480266         0.7323805981           1.78453636       0.000852905517       0.001603909726      1.857706876e-16      9.243534524e-16      3.009529774e-32      1.192040811e-30         0.5319453879         0.4942668481         0.3855206551         0.1620175172        0.03486102701      0.0001628926158      1.863210571e-05      5.175749364e-13          4.206571003          3.827328044          3.176993798          1.156021812         0.6855050584        0.05775547663       0.009721377417      7.254921644e-06          3.212313391          3.083277011          2.062209507           1.29437185         0.1693209241        0.04866469944      0.0004606327154       0.001522957889 
4 1          2.314511322          5.109962173          2.038797269          4.550684362         0.7161018631          1.879152634      0.0004669270211       0.002086604121      1.227152408e-16      3.032909687e-15       2.37642502e-32      1.317182086e-29         0.5669374059         0.5127698691         0.4416522266         0.1384992871        0.07315811647      0.0002471512671      0.0004235859481      8.008716294e-10          4.444031527          4.037985518          3.380238563          1.190781122         0.6891903082        0.04270616255       0.005388981347      1.725212949e-05          3.464701238          3.349528464          2.172104461          1.458548632         0.1530677574        0.07592604117      0.0003085865046       0.003450457689 
5 1          2.274533215          4.938814797          2.005474769          4.371747121         0.7273335773          1.721636707       0.000317099682       0.001575703252      6.373169253e-18      2.752756796e-16       6.63812611e-35       4.36261626e-32         0.5681428247         0.5200796762         0.4280093277          0.155030653        0.05987170285      0.0007959698595      0.0002851143291      3.861941926e-07           4.21842596          3.826667918          3.224546434          1.110066443         0.6466017868        0.02987714751       0.006154549776       1.10548235e-06          2.958783747          2.842492145          1.895034011          1.197411051         0.1503940854        0.04814711933      0.0002801442052       0.001753303767 
6 1          2.201567683          5.025969669          1.931966444          4.463690706         0.6693166348          1.797527712      0.0003102355417       0.001690505275      6.369372731e-18      5.227788786e-16       6.63810651e-35      2.267439925e-31         0.5578813857          0.508808011          0.431423312         0.1393409681        0.04254309565      0.0002459905162      5.719856107e-05      1.260892111e-17          3.996120228          3.625124877          3.049296549          1.058114353         0.6378644191        0.03267660734       0.006125323124      1.720360604e-06          3.209715572           3.09186155          2.036591199          1.321636936         0.1543195409        0.05831572372      0.0006352968186       0.003670053097 
7 1          2.097364265          5.016762189          1.836582133          4.461446659          0.629206879          1.828102388      0.0003381097814       0.002674675876      2.685670207e-17      5.276477145e-14       1.16186834e-33       4.02297493e-27         0.4261503803         0.3920104371         0.3176832912         0.1199506915        0.03703901237      3.862502631e-05      4.119913972e-05      3.719711784e-13          3.839709471          3.476252203          2.945529005         0.9990716465         0.6243093494        0.02810692088       0.005908803406      3.736988702e-06          3.291578296          3.177893234          2.071510722           1.37690286         0.1525872489        0.06970249942      0.0001201789829       0.001219732171 
8 1          2.259336753          4.907511825          1.984583434          4.344367749         0.6944135847          1.706559647      0.0003783539938       0.001258436925      2.685927282e-17      2.225698706e-16      1.161868352e-33       6.29935614e-32         0.5416867977         0.4975342539         0.4060499964         0.1499590749        0.04755792389      0.0005075503007      0.0001173293258       5.73519438e-13          4.019704105          3.628843976          3.103657685          1.024670722         0.7015099531        0.03537995584       0.003084772539      5.495852562e-06          2.903266729          2.794165034          1.845612976          1.189602027         0.1380043172         0.0470381598       0.001621409012       0.001075945699 
9 1          2.425578899          4.946500839          2.145989172          4.374555155         0.7585372003          1.685935797       9.36921004e-05       0.001388020683      3.423883739e-21      4.277350801e-15      1.345776216e-41      2.752397852e-29         0.6843050265           0.62096189          0.530734778         0.1700782818        0.07951628856       0.001729238473      8.142044737e-05      2.882054406e-12          4.413586993          3.983896361          3.419258878          1.108315315         0.7130052975         0.0235287534       0.006909761806      1.453277167e-06          2.926102723          2.799752658          1.904466965          1.148497102         0.1539532419         0.0401794893      0.0002885367366          0.003966337 
10 1          2.423112718          4.954970325          2.138838218          4.410640313         0.7608016298          1.815791309      0.0004110861276       0.001804852729      4.720595765e-17      1.348558519e-15      3.562125774e-33      2.623807055e-30         0.6576130133         0.6045500508         0.4948230548          0.179862821        0.04779266528      0.0008064415319      0.0001427322285      2.698912724e-12          4.524044931          4.103983121          3.452665393          1.198575452         0.7272443409        0.04122050261       0.005711423692      1.837390392e-06           3.18670199           3.08722159          1.980210053          1.360421787         0.1247721799        0.06435809416      0.0002934821353        0.00189343304 
11 1          2.260514319          5.022315283          1.988227467          4.468711866         0.7080627878          1.816336071      0.0003924363356        0.00150644729      4.720510884e-17      1.707305717e-16      3.562125773e-33      2.063430525e-32         0.5470450449         0.5049291183          0.405595422         0.1562932828        0.03895727825      0.0005664158388      9.038969984e-05      3.440461208e-10          4.286419763           3.87747521          3.298233947          1.105603015          0.704408268         0.0376896656       0.006231440656      8.745163868e-07          3.268153305          3.153611128          2.061474531          1.358837941         0.1402003511        0.05927136453      0.0001981362977       0.001324844766 
12 1          2.085413318          4.950951462          1.809591349          4.418287545         0.5393462484           1.85282539       1.73674676e-05       0.002590446596      3.004936028e-24      7.374646275e-15      1.706665484e-47      5.360259499e-29         0.4087658822         0.3629973434         0.3324967787        0.08418715811        0.07311713072      6.676282793e-05      8.935509447e-05      2.510611307e-20           3.71245675           3.32428041          2.946345528         0.8508888861         0.6336192815         0.0128543877       0.004202235626      3.226394786e-06          3.275716385           3.18113265          2.010653831          1.427980182         0.1323964781        0.06360262627      0.0001718122099       0.005755626787 
13 1            2.2004052          4.977056155          1.936996482          4.424734784         0.6915436288          1.793438264      0.0005367538016       0.001641177095      2.151065105e-16      5.308947375e-16      7.246915473e-32      3.255960492e-31         0.5305383838         0.4905265279         0.3938072875         0.1508747677        0.02846096178      0.0002603657334      0.0001114207065      3.936398024e-12          4.067483323          3.687574273          3.105130423          1.077615837         0.6712323313        0.03859795169       0.006569149963      8.850243868e-05          3.169327011          3.062057163           1.98845234          1.329714469         0.1291949348        0.05608389793      0.0003563190946      0.0009213015614 
14 1          2.226366898          4.933336873          1.955736118          4.380061945         0.6931887048          1.765307547      0.0005318159088       0.001477707826      2.151064471e-16      8.912654437e-16      7.246915473e-32      1.203365178e-30         0.5246392376           0.48360443         0.3904410167         0.1481161899         0.0389430315      0.0001646399762      3.859785427e-05      1.786632548e-10          4.064331908          3.677842365          3.118613401          1.058687761         0.6848107671        0.04084440799       0.008958633573      7.929521734e-06          3.070439285          2.959908325           1.93603593          1.277078957         0.1492511154        0.05076156868       0.000197551694      0.0001212010623 
15 1          2.208448551          4.905907582          1.931608737          4.363454118          0.619813025          1.767682773      0.0001071593052        0.00132012219      1.149037635e-19      5.312707751e-17      2.292433167e-38      1.653488602e-33         0.4775159461         0.4270748214         0.3831271043         0.1043047542        0.07385795462      0.0004396972707      5.513657243e-05      7.950052161e-11          3.898910566          3.510909752          3.043331196         0.9538400138          0.652224807         0.0246705168       0.003322544044      1.921828675e-06          3.064901365          2.957156698          1.933939044          1.273892302         0.1389690862        0.05464384163      0.0002829955886         0.0064393806 
16 1          2.065703581           4.96684686          1.818510957          4.412848677         0.6675700673          1.761557288      0.0003554944712       0.001134249584       7.22990999e-18      2.979133683e-17      8.305717319e-35      4.629916058e-34         0.4477584779         0.4188381434         0.3178700635         0.1438107435        0.02311427612      0.0002553363513      3.650126376e-05      2.856146673e-09          3.870666062          3.505329854          2.962838948          1.016693083         0.6491265527        0.04008275469       0.006147171455      0.0001245416005          3.120852702          2.996632211          2.005173793          1.254200731         0.1419202337        0.04618727704      0.0001226799878      4.537583958e-05 
17 1          2.277791462          5.019057928           1.99455882          4.470791762         0.6584788677          1.861704123      0.0002553908567       0.002149280804       7.11500626e-18      1.135520425e-15      8.303424886e-35      9.606696243e-31         0.5276277474         0.4797687477         0.4084400562         0.1314386197        0.05232377176      0.0001998606883       0.000106639626      4.047884912e-14          4.150558657          3.756388652          3.189790482          1.072695554         0.6679538057        0.02931433994       0.008347866209       2.59035761e-07           3.33116459           3.23212101          2.059444058          1.436667761         0.1361742366        0.07820789389      0.0003060267911       0.004997691955 
18 1          2.382820564           4.95711026          2.096463338          4.400575153         0.6939287415          1.756757475      4.436833599e-05       0.001436124061      1.042842219e-22      1.742057731e-16      1.433281964e-44      1.752956106e-32         0.5956039385         0.5352548878         0.4732714542         0.1351100299        0.08262312147      0.0007423977668      8.992106654e-05      3.843402784e-12          4.322999726          3.900497847          3.362716159          1.068976443         0.6748024901        0.02000735346         0.0068170516      8.607077353e-08          3.035914495          2.927579891          1.921007712          1.257841917          0.149147967        0.05417982166      0.0009319216865        0.01908388505 
19 2          2.855630607          3.626510504          2.529471152            3.1291122         0.9818705759         0.8952943501      0.0004788433372      1.053607093e-05      2.659567179e-18      2.329196943e-26      4.678313247e-36      8.276366793e-52          1.146247325          1.050324204         0.8307958362         0.3530906925         0.1890438053        0.00376692167        0.00899969626       2.21806046e-08          3.868372008          3.439762698          3.127879598         0.8189388893         0.6604494332       0.004579446848        0.03042984159      2.834786952e-07          1.090695311          1.007040095          0.805257085         0.3158683308        0.08569023973      0.0002867157287        2.1325804e-06      1.631142594e-11 
20 2          2.138844426           3.03910313          1.931526081          2.566955832         0.8771161342         0.6097763538       0.001076026982      4.521610314e-06      8.911164065e-16      1.923392458e-26      1.190406625e-30      8.054265114e-52          1.163043312          1.063959004         0.8895891849         0.3011839007        0.08817996156      8.220490906e-06      5.683172961e-06      2.269434792e-26          2.768508611          2.446953175          2.240744596         0.5841117725          0.603941788        0.00210626924        0.01195983445      1.523907799e-16         0.7760949163         0.6947245104         0.6262723835         0.1648617082         0.1021899081      9.459981321e-05      7.862405184e-06      9.933869881e-22 
21 2          2.664427821          3.687425467          2.331068952          3.189172404          0.839123645         0.9400772254      0.0003385404466      3.868872448e-05      1.630352552e-18      4.739256811e-23      4.076660886e-36      2.334599697e-45         0.8525361884          0.777956763         0.6202860456         0.2599461926         0.1616025511       0.001861583344       0.006850726751      1.581776078e-12          3.574216509          3.167136849          2.899870873         0.7458077067         0.6628111508       0.004961117492        0.04296434847      5.580497856e-07          1.191453168          1.102713137          0.876130048         0.3487957924        0.07942048944      0.0005061547153      2.068434244e-05      4.552283911e-11 
22 2            2.3727357          3.030933677          2.106117003          2.586750849         0.8379313059         0.6762818221      0.0004803831097      1.587056353e-05      3.029188059e-18      1.055474545e-23      6.974786838e-36      2.208569947e-46          1.085444897         0.9869445336         0.8267569922          0.286467613         0.1445939495      0.0004131094922       0.001062411913      5.649000152e-21          2.938103673          2.596548633          2.389928489         0.6064474787         0.6091963037       0.002613685035        0.01787002204      4.791513228e-10         0.7706016541         0.6998987478         0.5990608309         0.1891066461        0.07647933595      0.0001041402792      1.242499057e-05      2.824039471e-15 
23 2          2.658967124          3.637864151          2.319808379          3.155522793         0.8151275393          0.950647749      0.0003465512874      4.700523701e-05      5.811299131e-18      1.931251966e-22      5.466787159e-35      5.292923952e-44         0.7856252493         0.7101237509         0.5839281756         0.2262480098         0.1733068431       0.002987491297        0.00715129267      5.729508355e-17          3.501599538          3.100267783          2.851724149         0.7186638165         0.6679628114       0.004141809697        0.02084129311       3.61143474e-05          1.138074575          1.056035234         0.8307519324         0.3403262237        0.07156948407        0.00210123021      9.016320162e-06      2.342889938e-07 
24 2          2.559516186          3.435707725          2.294829662          2.957731909         0.9880590996         0.8166468173       0.001300893549      8.694176474e-06      4.888491407e-16      1.026165673e-25      2.208078168e-31      2.232460545e-50          1.242604584          1.147937965         0.9001179825         0.3807768938         0.1436148709       0.001156577389      0.0002562578877      9.751655933e-17          3.596418849          3.198753781          2.886778306         0.7867852676         0.6814215362       0.006629356052        0.02666571775      7.478262818e-07          1.022962298         0.9353296421         0.7825294487         0.2651988499        0.08209281132      0.0002968722462      4.564700316e-05      1.364621791e-15 
25 2          2.674729573           3.54846021          2.369006826          3.060037283         0.9336471884         0.8633814707      0.0008230006743      2.090344437e-05      1.194194253e-16      1.776949563e-23      1.137562563e-32      6.208138749e-46          1.115068759          1.022024835         0.8217490526         0.3268278056         0.1591070278       0.001744817271       0.001436832005      3.050550322e-12          3.687455578           3.27849589          2.968839582         0.7955944723         0.6906136918       0.006560888786        0.01763138544      3.977415784e-08          1.132421376          1.036307455         0.8641275475         0.2960967605        0.08930620682      0.0004064678564      2.014279463e-06      3.808468253e-11 
26 2          2.328612097          3.035755019          2.089781505          2.571713308         0.9051613966         0.6107829039       0.001242057286      1.403181001e-06      2.962620149e-15      3.437092742e-30      1.316565612e-29      1.589618694e-59          1.124572515          1.030237915         0.8379747399         0.3175560918         0.1356570768      0.0003273613559       0.001124305653      2.006599061e-19          2.916340738          2.564898215          2.390924536         0.5804717461         0.6382625827       0.001703422688        0.03857526996      1.970501546e-09         0.7495058046         0.6767678784         0.5930553207          0.172181357        0.07973481124      5.564345706e-05      1.126824053e-05      3.534273125e-19 
27 2           2.64177284          3.387352104           2.33523125          2.911195159          0.911824184         0.8035658311      0.0008297666433       2.83450077e-05      1.405086916e-16       1.64059964e-22      1.920468258e-32      5.127897371e-44          1.117769589          1.025873745         0.8266333031         0.3235136743         0.1386863927      0.0009484906198      0.0004851986124      1.106850497e-17          3.328678245          2.952814104          2.685157006         0.7131011094          0.658498371       0.005751638079        0.02398820813      7.599311275e-10         0.9226832656         0.8455130628         0.7014038489         0.2441379552        0.06958829903      0.0004626710733      0.0003321055725      1.277532086e-13 
28 2          2.301101388          3.096031295          2.052378902          2.639558195         0.8282432719         0.6757136251      0.0006013268636      2.806218944e-06      1.332520592e-16      2.417752698e-29      2.797636689e-32      6.013306238e-58          1.072505093         0.9794769475          0.809305572         0.2912578083         0.1277305894      0.0002210393956      0.0004768915418      2.375172491e-23          2.880711318          2.542749825          2.352995835         0.5835499933         0.6015254754       0.002226993706         0.0150353093      1.225176282e-10         0.7983419702         0.7229445059         0.6261526316         0.1896500877        0.08219656148      0.0001123237689      3.462833538e-05      2.538586806e-17 
29 2          2.699609394          3.614758418          2.374558206          3.122347217         0.8805292819         0.8851608172      0.0004076288818      6.371086895e-06       3.00534822e-18      1.012303174e-27        9.7091454e-36      2.035969325e-54         0.9294847279         0.8515966146         0.6685380178         0.2919496768         0.1657185757        0.00168295533       0.008645320372      8.938841297e-12          3.717274257          3.281514417          3.052937162         0.7336071382         0.7159315356       0.002766055653        0.02843994257      1.120240601e-06          1.137826801          1.050491598         0.8440620899         0.3247194151        0.07706163745      0.0002891804245      9.381424482e-06      3.519284563e-16 
30 2          2.194326739          2.729460093          1.979229213          2.280185713         0.8805577402         0.4952407165      0.0008619475021      1.386236236e-06      7.608998188e-17      1.208779276e-29      4.676332927e-33      3.253420791e-58          1.196805789           1.09875768          0.907507559         0.3186705156         0.0788649513      1.601321821e-05      5.183329711e-06      1.858338085e-25          2.395818658          2.098462404          1.968822237         0.4722966539         0.5831906955       0.001918669205        0.03182244798      5.951303309e-16         0.5445755497         0.4888291616         0.4355275746           0.12001609        0.07120006195      9.600348957e-06      1.321173877e-05       4.81361834e-28 
31 2           2.74676242           3.61452794          2.414928648          3.119971199         0.9005323116         0.8977363905      0.0006730706442      2.966847117e-05      1.939881588e-16      3.006108788e-23      5.891364027e-32      1.714172686e-45         0.9852440737         0.9006244644         0.7236148381         0.2928018437         0.1678442857       0.003622582597       0.002437384046      3.910204925e-13          3.691628002           3.28126367          2.973871659         0.7941365869         0.6811667924       0.004392746979        0.02548150011      1.469715472e-06          1.165395671          1.073789164         0.8710190004         0.3254404271         0.0802897608        0.00108090748      2.965715724e-05      3.472921554e-13 
32 2          2.444534522          2.957917351          2.181050548          2.507123387         0.8800819997         0.6019811636      0.0006034778714      2.765859794e-06      2.481357575e-17      1.293472086e-27       7.07492472e-34      3.793098746e-54          1.246122348          1.138340658         0.9435259491         0.3346932947         0.1398397013       0.000281362771      1.115882158e-05      6.779275002e-21          2.785954195          2.447418013          2.288646093         0.5497627836         0.6325275236       0.002236577582        0.02674927951      2.338517552e-09         0.6885678319         0.6228768974         0.5425480485         0.1607376769        0.06985214717      7.541413578e-05      1.171831632e-06      9.449390571e-18 
33 2          2.618762564          3.622168208          2.302102632          3.122731051         0.8572492988         0.8668959652      0.0006508526617      9.909365079e-06      1.996650283e-16        1.1565132e-25      6.230733651e-32      2.639831276e-50         0.8270596372         0.7594049623         0.5934009852         0.2616941928         0.1393319482       0.002089022642       0.009534624155      5.374692336e-11          3.466062304          3.059426629          2.840705665         0.6916100716         0.6857396694       0.006377186604        0.02853057602      4.664524692e-05          1.110186316          1.024369628         0.8272522618         0.3124318539        0.06966812701      0.0002438621028      7.452383562e-06      9.513119277e-16 
34 2          2.117462323          2.887473589          1.897304411          2.450695682         0.8068687158         0.5993799656      0.0005001694532      3.630913461e-06      5.432652788e-18      5.973640009e-27      3.580081842e-35      7.907981096e-53          1.017700716         0.9332821904         0.7681688439         0.2753017791        0.08593343408      2.360085324e-05      0.0004037581464      1.643219871e-27          2.545939422          2.246368611          2.070743974         0.5257877621         0.5631752443       0.001823679193        0.01012924864      9.568875352e-14         0.7182173918         0.6462508944         0.5739762638         0.1586330477        0.08040749967      8.434217001e-05      1.309764029e-06       9.24239822e-17 
35 2           2.70371885          3.543217095          2.369274614          3.050903386         0.8717887858          0.853287572      0.0004846960566      1.582646801e-05      9.219100349e-18      5.348964507e-25      1.297531105e-34      4.090945747e-49          1.006534051         0.9177110518         0.7432254407         0.2938298897         0.1777522062       0.001416734954       0.002032536173       1.72365223e-16          3.549027537          3.136216686          2.889766037         0.7288873935         0.7153590483       0.004424573374        0.03478006669       2.09136364e-07          1.095174476          1.005966799         0.8259022727          0.297394391        0.08153869714      0.0007797985642      3.631722985e-05      2.772085505e-11 
36 2          2.298841793          3.023096026           2.07472804          2.560284379         0.9486352627         0.6101898278       0.001609278231      1.997588614e-06        5.8732597e-15      8.450924149e-29      5.048688079e-29      1.671911597e-56           1.14976139          1.069846119         0.8238370202         0.3611219948        0.08905786348      0.0001335122468      1.474053362e-05      4.123920691e-22          2.974975048          2.615908356          2.437611794         0.5943926215          0.669679549        0.00346190055        0.03411883355      3.134532497e-10         0.7547718756         0.6821865575           0.59615173         0.1745644195        0.07732676372      4.921603093e-05       2.71355597e-06      3.166186121e-16 
37 2          2.735314067          3.538407341          2.401843605          3.057431176         0.8876392268         0.8574628286      0.0005711050441      8.135994191e-06      3.048171193e-17      2.315237038e-26      1.269461091e-33      1.085457027e-51         0.9628299601         0.8830072005         0.6953655981         0.2990397967         0.1597613485       0.001894809636       0.006805458934      1.924144021e-11          3.615281474           3.19419082          2.959220007         0.7247810057         0.6980231946       0.003533115858        0.03234734433      4.200661259e-06           1.08153865         0.9972157503         0.8087866036         0.3011792837        0.06590010453      0.0004028233869      1.749815756e-06      5.656566345e-13 
38 2          2.456709564          3.046206585          2.219700043          2.584233009          1.032167479         0.6341511136       0.002143963914      3.478094709e-06      5.676991238e-15      8.031839027e-28      3.015947311e-29      1.393633255e-54          1.410677711          1.308904368          1.025071692         0.4263852891         0.1000083688      9.012505673e-05      0.0001758828514      2.553543424e-22           3.07097351          2.718185995          2.476287727         0.6593860858         0.6534366115       0.004672352219        0.03033004579      7.862805757e-13         0.7321858287         0.6626558957         0.5761411242         0.1717425959        0.07335693176      6.961710497e-05      9.065561617e-06      2.081895212e-17 