ITEM: TIMESTEP
0
ITEM: NUMBER OF ENTRIES
4758
ITEM: BOX BOUNDS xy xz yz pp pp pp
-0.026733 19.1744 2.95065e-05
0 11.54 -0.026733
0 30 1.98508e-05
ITEM: ENTRIES c_2[1] c_2[2] c_2[3] c_2[4] c_2[5] c_2[6] c_2[7] c_2[8] c_2[9] c_2[10] c_2[11] c_2[12] c_2[13] c_2[14] c_2[15] c_2[16] c_2[17] c_2[18] c_2[19] c_2[20] c_2[21] c_2[22] c_2[23] c_2[24] c_2[25] c_2[26] c_2[27] c_2[28] c_2[29] c_2[30] c_2[31] c_2[32] c_2[33] c_2[34] c_2[35] c_2[36] c_2[37] c_2[38] c_2[39] 
                   0                  193        -0.3313339073                    0         0.3208963496                    0        0.04878787771                    0       0.006079981223                    0      3.044528046e-13                    0      2.646950004e-61                    0      6.73439959e-122                    0                    0                    0                    0                    0                    0                    0                    0        0.02506068602        0.02181891653        0.02112798303       0.004332690681       0.006425414447      4.092302076e-07      -3.19249584e-06     -6.225613917e-39        0.05985496269        0.05177302095        0.05142793755        0.00924119759        0.01522298305      2.614909171e-08      6.579898303e-07     -1.032578792e-54 
                   1                   53         -3.902578021                    0         0.5560917394                    0        0.08454610283                    0        0.01053619755                    0      5.275961845e-13                    0      4.586985903e-61                    0     1.167026046e-121                    0                    0                    0                    0                    0                    0                    0                    0        0.04044855059        0.03443096943        0.03537324551       0.005586552926        0.01349623302       1.52711966e-06      3.387306558e-06      5.510235615e-39         0.1031286257        0.09059682748        0.08701297066        0.01766073693        0.01816540617      3.195905314e-08      4.410786438e-08       2.85215192e-52 
                   1                    2          2.270775979                    0         0.2880532386                    0        0.04379453425                    0       0.005457707087                    0      2.732926581e-13                    0      2.376039871e-61                    0      6.04514702e-122                    0                    0                    0                    0                    0                    0                    0                    0        0.02628372233        0.02193127643        0.02351990441       0.003042389842        0.01105433485      6.491152102e-07      5.577021373e-06      2.626743531e-41        0.05434529553          0.047859773        0.04580469038        0.00935817681       0.008717939856      1.673459841e-08      -2.76759402e-07     -3.220825805e-52 
                   0                  157          2.757014828                    0      -0.001897893033                    0     -0.0001929839168                    0     -4.491646024e-06                    0       -2.0749906e-22                    0      -4.49441079e-95                    0    -5.566823807e-186                    0                    0                    0                    0                    0                    0                    0                    0     -5.700475322e-05      -4.55228485e-05     -5.293134485e-05     -4.455851275e-06     -3.126473963e-05     -2.499687917e-12     -1.651391487e-06      8.163343466e-59     -8.886940345e-05     -7.035022368e-05     -8.344290921e-05     -5.933683264e-06     -5.207421369e-05      -9.70716584e-12     -2.339054757e-06      3.620218639e-63 
                   1                   26         -5.664495281                    0        0.01675459719                    0       0.001703661763                    0      3.965224519e-05                    0      1.831801428e-21                    0      3.967665253e-94                    0     4.914391323e-185                    0                    0                    0                    0                    0                    0                    0                    0      0.0005097398003      0.0004081540353      0.0004730408235      4.013352827e-05      0.0002744690611      1.678918647e-11      1.304589752e-05      8.008842651e-58      0.0007838923847      0.0006193257584      0.0007368839784      5.140033236e-05      0.0004639521047      9.557626253e-11      2.264209249e-05      4.840654738e-62 
                   1                    2          1.964081229                    0       0.006971460104                    0      0.0007088806657                    0      1.649899679e-05                    0      7.621986028e-22                    0       1.65091525e-94                    0     2.044840747e-185                    0                    0                    0                    0                    0                    0                    0                    0      0.0002137714009      0.0001708899164       0.000198547729      1.664834275e-05       0.000116165098      6.955204091e-12      5.978894718e-06       3.26445148e-58      0.0003259840164      0.0002580985819      0.0003061057981      2.173494313e-05      0.0001907194386       3.83527666e-11      8.509436224e-06      8.888507701e-63 
                   0                  160          2.580823187                    0        -0.1181560582                    0       -0.04337504452                    0       -0.04398024271                    0     -0.0001691136431                    0     -4.159950799e-18                    0     -1.151352546e-35                    0                    0                    0                    0                    0                    0                    0                    0        0.05604778737        0.03272206881        0.08528901143       -0.03416370688        0.04455982903      -0.002437093755     -5.525267641e-07     -3.959374891e-11        -0.1701491678        -0.1651282527        -0.1073445882       -0.07072132443       0.001156781078      -0.004229618459      1.296030323e-05      0.0004390649588 
                   1                   30         -1.788480764                    0         0.4918368643                    0         0.1805531278                    0         0.1830723281                    0      0.0007039531035                    0      1.731622726e-17                    0      4.792624553e-35                    0                    0                    0                    0                    0                    0                    0                    0         0.2862172597         0.2885801081         0.1543997167          0.147825199       -0.02934794031       0.001865598321     -1.791275669e-06     -9.515598515e-11         0.5698873752         0.5702460477         0.3136655856         0.2929196741      0.0008719770516         0.0296920444     -4.846610677e-06      5.053690447e-05 
                   1                    2          2.517822703                    0         0.4562184077                    0         0.1674776058                    0         0.1698143675                    0      0.0006529733482                    0      1.606219908e-17                    0       4.44554628e-35                    0                    0                    0                    0                    0                    0                    0                    0         0.3955991486         0.3531352898         0.3104322755        0.09594084841        0.09184350693        0.00244001808      1.898083876e-06      1.679447868e-10         0.5232552114           0.52593334         0.2768610898         0.2816912788        0.01149873131        0.02664443378      8.828097577e-06      0.0002758855981 
                   0                  154          5.929580987                    0        -0.8245639153                    0        -0.1796433177                    0        -0.0663708148                    0     -3.454563977e-08                    0     -8.697877965e-39                    0     -1.420972835e-77                    0                    0                    0                    0                    0                    0                    0                    0        -0.3050712637          -0.26638487        -0.2600005958       -0.04946820765        -0.0615028475     -1.384226257e-05      2.404635144e-06     -4.020713147e-32        -0.3289417255        -0.3035374483        -0.2449976513       -0.09291538996       -0.02146429524     -0.0006001346694      9.028725681e-08     -7.147747473e-13 
                   1                   21       -0.01257038876                    0        0.06315671546                    0        0.01375961486                    0       0.005083611576                    0      2.645991536e-09                    0      6.662059708e-40                    0      1.088381086e-78                    0                    0                    0                    0                    0                    0                    0                    0        0.02702694724        0.02332002184         0.0226205963       0.004868329324       0.008973470031     -2.451655382e-06      2.174987911e-06      -2.83012669e-31        0.02634239025        0.02338628033        0.02147174781       0.005338217134       0.004652294105      -5.99850333e-05     -1.633335722e-07      8.109435626e-13 
                   1                    2          2.672309561                    0         0.3786213535                    0        0.08248820356                    0        0.03047599739                    0      1.586258705e-08                    0      3.993871508e-39                    0      6.524790232e-78                    0                    0                    0                    0                    0                    0                    0                    0         0.1888440093         0.1559350569          0.174728626        0.01543772281        0.07983775575      6.712714007e-06      8.536973078e-06      4.772246843e-32         0.1443749873         0.1362357064        0.09958547088        0.04959292683       0.005897136108      0.0002550375037      3.449443642e-07      1.394442234e-13 
                   0                  159          5.687097487                    0        -0.3415796475                    0       -0.04582494085                    0       -0.00359668581                    0     -3.982138488e-15                    0     -2.906665271e-70                    0    -1.100881191e-139                    0                    0                    0                    0                    0                    0                    0                    0       -0.03533908154       -0.02839815545       -0.03285462609      -0.002724915229       -0.01940426843     -2.933382252e-07     -8.804323557e-05     -5.821652201e-43       -0.03988175697       -0.03366271099       -0.03537862211      -0.004946691479       -0.01424629756      -1.18827304e-06     -8.058174307e-06     -1.121880487e-33 
                   1                   29          -3.71623462                    0         0.3789801939                    0        0.05084244655                    0       0.003990497372                    0      4.418154382e-15                    0      3.224924483e-70                    0     1.221419866e-139                    0                    0                    0                    0                    0                    0                    0                    0        0.03980510938        0.03154741779        0.03691310406       0.003178489045        0.02370117848      2.156425501e-07       0.001251206901     -3.080330677e-43        0.04402753331        0.03745957461        0.03877987613       0.005762667741        0.01411033108      1.339350204e-06      1.274946131e-06      2.685591551e-35 
                   1                    2          2.668676144                    0          0.167743948                    0        0.02250384808                    0       0.001766271152                    0      1.955560398e-15                    0      1.427413816e-70                    0     5.406240057e-140                    0                    0                    0                    0                    0                    0                    0                    0        0.02054361864        0.01545507643        0.01958357191       0.001056580546        0.01536335446      1.104627162e-07       0.002058719052     -5.800284679e-45        0.01896720735         0.0165349876        0.01618823742       0.003052922692       0.004173326746      4.357895908e-07     -4.600090801e-06      1.451719736e-33 
                   0                   80        -0.4602563528                    0         0.6128759335                    0         0.2051634592                    0         0.1817530756                    0      0.0002092380794                    0      2.545422407e-20                    0      9.257678459e-41                    0                    0                    0                    0                    0                    0                    0                    0         0.2059848154         0.2185911204        0.08406259785         0.1418712963       -0.01551040797        0.01757290798     -3.507629828e-05     -1.094009847e-08         0.6609079707         0.6443795936         0.4135508231         0.2811980599       0.008533506199        0.02780385796       -0.00013251627       0.005488317032 
                   1                   45         0.4952260884                    0       -0.05136942432                    0       -0.01719618639                    0       -0.01523399819                    0     -1.753770885e-05                    0     -2.133496791e-21                    0     -7.759508686e-42                    0                    0                    0                    0                    0                    0                    0                    0      1.926732645e-05       0.001506006395     -9.148046144e-05     -0.0009343439444       -0.01845556172      -0.003238277152      1.211673198e-05     -1.201967709e-08       -0.03213350899       -0.04166090891       0.002076458104       -0.03825460802        0.02622896104      -0.002154505178      0.0004459991984     -0.0003514412492 
                   1                    2          2.696517545                    0         0.4196870489                    0         0.1404924586                    0         0.1244614248                    0      0.0001432826894                    0      1.743062111e-20                    0      6.339501259e-41                    0                    0                    0                    0                    0                    0                    0                    0         0.1743906009         0.1604388208         0.1189432216        0.06627827469        0.06984474926        0.01803863376       5.65918961e-05      2.817974244e-08         0.4743193705          0.458833451         0.2998878427         0.1973012715        0.01769266771        0.01765289246      0.0002450312514      -0.002162752922 
                   0                   81         -3.338062365                    0         0.1198248794                    0        0.01290333334                    0      0.0003963703614                    0      2.116166154e-19                    0      4.457401577e-88                    0     2.782229074e-174                    0                    0                    0                    0                    0                    0                    0                    0       0.003209821291       0.002583228089       0.002984815823      0.0002459365767       0.001687067841      8.973833689e-10      3.918212006e-05      1.625675911e-51       0.008412784754       0.006460197614       0.007920564636      0.0005392571052       0.005462455833      5.212773528e-09        0.00119354792      5.253610788e-49 
                   1                   46          2.015444022                    0       -0.03831185951                    0      -0.004125609778                    0     -0.0001267323254                    0     -6.766062342e-20                    0     -1.425174337e-88                    0    -8.895679259e-175                    0                    0                    0                    0                    0                    0                    0                    0      -0.001063348548     -0.0008606440182     -0.0009885961548      -8.16258879e-05     -0.0005336554011     -1.408864896e-10     -7.200823617e-06     -3.472939615e-51      -0.002637469336      -0.001984422817      -0.002495372161     -0.0001557248845      -0.001812004114     -1.641006261e-09     -0.0005855798476     -1.715674115e-48 
                   1                    2          1.713440466                    0        0.06022632695                    0       0.006485467596                    0      0.0001992234927                    0       1.06362648e-19                    0      2.240377175e-88                    0     1.398402725e-174                    0                    0                    0                    0                    0                    0                    0                    0       0.001708913911       0.001361320739       0.001598715989      0.0001204369795      0.0009567769782      4.338663667e-10      3.584583515e-05      1.152727202e-51       0.004249256805        0.00329717409       0.003990284371      0.0002835738549       0.002659374779      2.412651983e-09       0.000442350453      2.348202897e-48 
                   0                   84        -0.3099655102                    0         0.4650413994                    0        0.09052117799                    0        0.02468950503                    0       9.33625072e-10                    0      2.480478397e-45                    0      2.458751081e-90                    0                    0                    0                    0                    0                    0                    0                    0        0.08625989291        0.07419279566         0.0727449425        0.01500578321        0.02991959545      1.337800782e-05     -2.656514134e-06     -5.584448217e-28         0.1751727132         0.1567378255         0.1429636904        0.03539099133        0.01873605893      8.422063863e-05      1.698450506e-07      7.522078127e-17 
                   1                   49          3.813542576                    0        -0.6861847668                    0         -0.133567148                    0       -0.03643022379                    0     -1.377596281e-09                    0     -3.660032189e-45                    0     -3.627972777e-90                    0                    0                    0                    0                    0                    0                    0                    0       -0.09718555251       -0.08574754382        -0.0793875828       -0.01974737234       -0.02185602923     -5.378559187e-05     -2.509332914e-06     -4.984781116e-28        -0.2725644771        -0.2408183104        -0.2267267365       -0.05044611063        -0.0454925295     -0.0001912184289      2.161311049e-07     -2.186198363e-17 
                   1                    2          2.806917469                    0         0.3169984383                    0        0.06170433879                    0         0.0168297587                    0      6.364114898e-10                    0      1.690833933e-45                    0      1.676023369e-90                    0                    0                    0                    0                    0                    0                    0                    0         0.0620062623        0.05192959037        0.05452998795       0.008303766942        0.02714884971      2.030202358e-05      1.320923005e-05      5.320601517e-29         0.1239610399         0.1093190301         0.1028814357        0.02319529297        0.02334825066      6.608493581e-05      5.187952932e-07      6.634724283e-18 
                   0                   21          2.777731846                    0          -0.16164531                    0       -0.06412572372                    0       -0.07192672545                    0     -0.0006832383727                    0     -9.024292006e-16                    0     -3.625292312e-31                    0                    0                    0                    0                    0                    0                    0                    0        0.02283797974     -0.0008988998688         0.0750325018       -0.06009056022        0.02491321523      -0.001799430115     -1.061608261e-08     -4.747082993e-15        -0.2741545736        -0.2668364553        -0.1735555279        -0.1143493553       0.004140259376        -0.0141755501     -1.878026112e-06       0.001122656999 
                   1                   22          1.854295257                    0        -0.3660450911                    0        -0.1452124184                    0        -0.1628777524                    0       -0.00154719028                    0     -2.043546943e-15                    0     -8.209458443e-31                    0                    0                    0                    0                    0                    0                    0                    0        -0.2290217711        -0.2412921425        -0.1019772418        -0.1413254954        0.05875649692      0.0002289514486      3.908879605e-08      9.714865063e-16        -0.4753809356        -0.4803168737        -0.2506888341        -0.2591185543       0.001344415866       -0.03272065626      1.559872472e-05      0.0006691109179 
                   1                    2          2.371181849                    0         0.4812706601                    0         0.1909231353                    0         0.2141492546                    0       0.002034222847                    0       2.68682523e-15                    0      1.079367428e-30                    0                    0                    0                    0                    0                    0                    0                    0         0.5176819573         0.4626279323         0.4122620414           0.11775052        0.09410879818       0.001093843744      2.786043878e-08      1.481054768e-14         0.6230867416         0.6373604302         0.3056280908         0.3672352206        0.01545399484        0.05060241529      1.104675205e-05       0.001519399325 
                   0                   24          5.810436323                    0        -0.5049363562                    0       -0.07746211332                    0      -0.009961890524                    0     -6.482760377e-13                    0     -1.742134264e-60                    0    -1.812860906e-120                    0                    0                    0                    0                    0                    0                    0                    0        -0.0881692768       -0.07248601219       -0.08063061404      -0.008269114555       -0.04087731875     -1.665011116e-06      0.0007875538722     -1.880383342e-38       -0.08638754608       -0.07466881223       -0.07407385064        -0.0135533196        -0.0230483861     -7.314802352e-06      -8.90884888e-07     -1.084956487e-27 
                   1                   25          3.703653413                    0        -0.4635623214                    0       -0.07111493683                    0      -0.009145622098                    0     -5.951568772e-13                    0     -1.599385336e-60                    0      -1.6643167e-120                    0                    0                    0                    0                    0                    0                    0                    0       -0.07992030971       -0.06391512664       -0.07297238316      -0.007647879524       -0.04513685524     -8.930059716e-07      -0.002823745656      1.390653935e-38       -0.08054180222       -0.06992096415       -0.06876573942       -0.01295143271       -0.01964136881      -6.24211142e-06     -2.671214325e-07     -4.836283551e-28 
                   1                    2          2.968504562                    0         0.1991389398                    0        0.03054983649                    0       0.003928812598                    0      2.556698508e-13                    0      6.870702932e-61                    0     7.149637662e-121                    0                    0                    0                    0                    0                    0                    0                    0        0.04114679317        0.03112262997        0.03898835794       0.002377875143        0.03018218249      5.051575659e-07       0.003683579451      -9.13149321e-42        0.03348626969        0.03014632393        0.02693312286       0.007211643701       0.003306219985      1.834234296e-06     -9.313576896e-07      7.908481889e-28 
                   0                   25          2.757044335                    0       -0.02715220008                    0      -0.003086392758                    0     -0.0001214781741                    0     -4.986299521e-19                    0     -3.121865457e-84                    0    -3.616421079e-166                    0                    0                    0                    0                    0                    0                    0                    0      -0.001395433252      -0.001034398535      -0.001339633578     -6.141388161e-05      -0.001105401309     -6.245405672e-10     -0.0001922520575     -8.274295005e-53      -0.002001887863      -0.001696871819      -0.001774977749     -0.0002486299787     -0.0006701785313     -3.038390498e-09       1.30655918e-06      1.272428635e-44 
                   1                   26          5.875495514                    0        -0.2254587077                    0       -0.02562790937                    0      -0.001008695873                    0     -4.140381416e-18                    0     -2.592245746e-83                    0    -3.002900762e-165                    0                    0                    0                    0                    0                    0                    0                    0       -0.01299103717       -0.01019324542       -0.01216335466     -0.0009067216716      -0.008012209734     -1.373403681e-09     -0.0005841090201     -9.640393215e-53       -0.01596145418        -0.0132986764         -0.014417877      -0.001689901527      -0.006376955736     -1.834158619e-08     -1.374808485e-05     -1.408012051e-44 
                   1                    2          1.964081229                    0        0.09973280101                    0        0.01133663548                    0       0.000446201727                    0      1.831518685e-18                    0      1.146693032e-83                    0     1.328348358e-165                    0                    0                    0                    0                    0                    0                    0                    0       0.006206674103        0.00474688449       0.005867757911      0.0003714334781       0.004240367179      4.928499697e-10      0.0006402612559      5.132783212e-53       0.007000667228       0.005921179212       0.006238477325       0.000834320939       0.002342730335      5.775933835e-09     -2.060472766e-06      1.547497871e-44 
                   0                  145          2.073033893       0.002070689789                    0      0.0004136916326                    0      0.0001213802029                    0      8.602616836e-12                    0      3.547225265e-46                    0      1.080652176e-89                    0        0.02138262316        0.01630575875         0.0227152491      -0.001457118175        0.01306757648      4.666774878e-05      1.060307586e-09     -6.414043812e-16      -0.002676106169      -0.001230115818      -0.004996329729       0.002569265213      -0.003693339447      1.119252909e-05     -2.502652721e-05     -1.782316685e-15                    0                    0                    0                    0                    0                    0                    0                    0 
                   1                    5         -4.204307689         0.8946791019                    0         0.1787429775                    0        0.05244451945                    0      3.716916723e-09                    0       1.53264305e-43                    0      4.669153844e-87                    0         0.1321941018          0.118866081         0.1058707449        0.02906618391        0.01520707794      0.0002316167115      1.368703502e-10      5.303403303e-16         0.3815354694         0.3344950406         0.3170606661         0.0712901414        0.08870378978      0.0002193260869      1.826511283e-05      1.414215062e-14                    0                    0                    0                    0                    0                    0                    0                    0 
                   1                    1          4.216343691        0.04427964884                    0       0.008846385547                    0       0.002595595337                    0      1.839584348e-10                    0      7.585389657e-45                    0      2.310867574e-88                    0       0.006774236924       0.005916329081       0.005757517849       0.001122207807       0.001422399185      1.098412372e-05      6.974340733e-11      3.304016408e-17        0.01896391834        0.01736577906        0.01461488251       0.004752011312      0.0001248622735     -3.997061368e-05      7.856168416e-05       6.33687942e-15                    0                    0                    0                    0                    0                    0                    0                    0 