ITEM: TIMESTEP
0
ITEM: NUMBER OF ATOMS
54
ITEM: BOX BOUNDS xy xz yz pp pp pp
-2.6732977382222696e-02 1.9174382766165152e+01 2.9506541316800546e-05
0.0000000000000000e+00 1.1540010645371973e+01 -2.6732977382222696e-02
0.0000000000000000e+00 2.9999991154072013e+01 1.9850802815995338e-05
ITEM: ATOMS id type c_1[1] c_1[2] c_1[3] c_1[4] c_1[5] c_1[6] c_1[7] c_1[8] c_1[9] c_1[10] c_1[11] c_1[12] c_1[13] c_1[14] c_1[15] c_1[16] c_1[17] c_1[18] c_1[19] c_1[20] c_1[21] c_1[22] c_1[23] c_1[24] c_1[25] c_1[26] c_1[27] c_1[28] c_1[29] c_1[30] c_1[31] c_1[32] c_1[33] c_1[34] c_1[35] c_1[36] 
1 2          2.776488399          3.592226314          2.436079329          3.104957999         0.8972521065         0.8819547561      0.0007538710299      1.160105846e-05        1.0647582e-16      2.948894007e-25       1.25888903e-32      1.787906918e-49          1.049387458         0.9545775211         0.7739485192         0.3075614205         0.1999000882       0.001609176977       0.004643619474      5.337566486e-15          3.708356086          3.286159797          3.015029525         0.7665114793         0.7060496975       0.003720547584        0.01535271192      2.193599917e-06          1.119859399          1.030448586         0.8413956845         0.3074834451        0.07598836134      0.0005554298055      1.429826253e-05      2.205853073e-14 
2 2          2.174183384          2.740694205           1.94575934          2.320117261         0.8040102208         0.5622313203      0.0004902005899       2.56241673e-06       1.62042403e-17      3.959588451e-29      4.024720659e-34       2.17619916e-57          1.094112212         0.9949231545         0.8448137767          0.274862204           0.11468519      3.783550431e-05      2.580293211e-05      9.974176304e-24           2.37944573          2.101782805          1.933912389         0.4927885455         0.5051534336       0.001842071423        0.01492213233      1.742931266e-12         0.5480371393          0.496340879         0.4297289082         0.1303350583        0.05655558692      0.0001019026607      1.594303751e-05      2.709683924e-19 
3 2          2.864802378          3.816345896          2.517473257          3.303288965         0.9287853749         0.9628857819      0.0005939998108      2.233419396e-05       6.72502597e-17      1.009443591e-23      7.107358117e-33      1.996795534e-46         0.9401326678         0.8530502361         0.6972409757         0.2737743071         0.1955980366        0.00870482807       0.006471419595      2.198825539e-06          3.818241202          3.389464957          3.097402954         0.7977586716         0.7049575654       0.007322947357        0.01174653813      9.308842718e-05          1.188354975          1.102062437         0.8671494131         0.3556523729        0.07906316238       0.000728121671      3.591615846e-05      4.710839557e-08 
4 1          2.285629265          4.915517339          2.016166584          4.350411483         0.7372354278          1.686083277      0.0005060765624      0.0009614528791      4.491407467e-17      4.845377087e-17      3.168073931e-33      2.969914229e-33         0.5874007387         0.5373967961         0.4408481035         0.1624307844        0.07034256855       0.000482338135      0.0001400742796      4.484871254e-12          4.194751512          3.805828325          3.211213491          1.099056667         0.6336418735        0.03459919301       0.004232620293      4.879392467e-06          2.878680816          2.755571173          1.866691387          1.136275526         0.1528618723        0.03601154211      0.0002501663608       0.001936090272 
5 1          2.220922133          5.049701339          1.956345808          4.487972435         0.7241031656          1.794839553      0.0004927724591       0.001422265208      3.753439839e-17      1.915536908e-16      2.209909651e-33      3.125226914e-32         0.5430073069         0.4974899702          0.404414068         0.1541904978        0.06850858106       0.001293259121         0.0001193778      2.358091896e-09          4.277744971          3.888549589          3.255085119          1.143272735         0.6355762375        0.03750550133       0.006289568869      1.894825823e-06          3.268179046          3.135759332          2.102696589          1.310614321         0.1638371298        0.04897873631      0.0002219009774      0.0001006757307 
6 2           2.56938192          3.357889227          2.273598091          2.880390657         0.8576318489         0.7720549997      0.0002664743242        8.9086119e-06      6.125440749e-19      2.925481927e-25      6.042371666e-37      1.787775545e-49          1.023663082         0.9388685981         0.7518591023         0.3023744521         0.1403200049      0.0009341582198        0.00264212327      1.681028077e-14          3.317208506          2.923001691          2.732389741         0.6458798937         0.6633355431       0.002899936427        0.02934277803       1.28480268e-09         0.9422677997         0.8622817214         0.7170899564         0.2484466818        0.08029820513      9.615570822e-05      8.493867709e-06      2.399891666e-13 
7 2          2.323107193          3.086973987          2.093757824           2.62291042         0.9262800988         0.6422669579       0.001062707178      2.064144415e-06      4.059031226e-16      1.327591888e-29      2.272108671e-31      2.116366242e-58          1.147314381          1.055413596         0.8452189861         0.3352253255         0.1290920936      0.0007549759953      0.0003037415206      7.159395213e-21          2.989399795          2.639793415          2.436099729          0.611629734          0.610737093       0.002678955565        0.03134851921      6.095608238e-07         0.7730124113         0.6992638185         0.6080566927         0.1817207083        0.08158135627      0.0001152211136      2.476202555e-06      1.182523435e-17 
8 2          2.711717393          3.741701077          2.387504436          3.242708522         0.8828165395         0.9566942351      0.0004789311851      1.723907266e-05       2.91059239e-17       1.07187018e-24      1.339324002e-33      2.334630351e-48          1.027330195          0.931666407         0.7735456534          0.282808328          0.175515874       0.001726806443       0.008129475639      2.125642521e-19          3.701768639          3.295655115          2.982836369         0.7951597854         0.6441867049       0.004222282925        0.01640318648      5.044856029e-06          1.205112504          1.111795685         0.8959089104         0.3420970307        0.08425398436      0.0009195119367      3.975736795e-05      5.902513874e-11 
9 2           2.49367738          3.399838874          2.235740586          2.914418708         0.9710670119         0.8085982196       0.001217631818      3.254284578e-05      2.339965926e-16      8.013607618e-23      3.685689475e-32      1.203940335e-44          1.292867803          1.191877746         0.9541507544         0.3751335128         0.1176929579      0.0004244034116      7.484579462e-05      1.419118841e-20          3.441901515          3.070186411          2.735351472         0.7843298028         0.6593300117       0.006851498336        0.01102670548      6.530573386e-08           0.94786548         0.8643169059         0.7279590779         0.2427635537        0.08975719164      0.0005203535629      1.816518993e-05        1.9455389e-05 
10 1           2.39163815          5.110486514          2.105933674          4.551679381          0.727183228           1.87226483      0.0003644911392        0.00186167248      3.711807814e-17      5.334784328e-16      2.209614042e-33      2.433390367e-31         0.5813880781          0.524013734         0.4540079666         0.1416093082        0.09166265905       0.001996223936      0.0001699785437      7.951308977e-10          4.529066433          4.121306421          3.440609057          1.215345661         0.6508755845        0.03259778484       0.002785679206      3.713824734e-07           3.44907649          3.328930212          2.177530646          1.434209594         0.1501717464        0.06611161679      0.0001900494621       0.008634929164 
11 1          2.210822904          4.863077432          1.943267788          4.312526742         0.6961608215          1.729518814      0.0008503309178       0.001210696896      2.237560516e-15      3.435408836e-17      7.599743016e-30      6.880168931e-34         0.5593455649         0.5109157253         0.4247686699         0.1486180896        0.05855888625      0.0002294862439      0.0003048852031      3.632754846e-12          3.908778846           3.55901873          2.949356863          1.074959044         0.6110796409        0.04220216192       0.004315722389      1.122331138e-06          2.897890976          2.798187449          1.818945427          1.215035899          0.131785295        0.05218223057       0.001849657175       0.002607476512 
12 1          2.326479679          4.879991147          2.053829303          4.306153368          0.753681419          1.618780523      0.0008628040542      0.0007237470528      2.237560558e-15      7.415387409e-18      7.599743016e-30      4.455742862e-35         0.6100942549         0.5610496017         0.4535835933         0.1731817181        0.05866565705      0.0005182014687      0.0004898624812      1.839790016e-09          4.136946656          3.744335424          3.176627101          1.073794919         0.6754819986        0.03560084724       0.005929179959      3.801943864e-07          2.715570669          2.593029409           1.77899562          1.050457443         0.1453937023        0.03240670587      0.0003642964321      0.0004294726333 
13 1          2.286630371          4.870370491          2.020494107          4.316017612         0.7314536688           1.68070664      0.0003897648017       0.001082691804      4.449779731e-17      2.164792306e-16      3.167778322e-33      7.064334193e-32         0.6091012974         0.5522208915         0.4700061969         0.1543236214        0.08172591063       0.001450108506      0.0003971752634      1.455213257e-10          4.077164953          3.708991473          3.098628886          1.091734283         0.5899603682        0.02869238399       0.002806915999       1.30174319e-07          2.848233802          2.731306921          1.840620373          1.131982244         0.1324665922        0.04009760208       0.000272289449       0.001796770425 
14 1          2.353089772          4.878910621          2.089078959          4.317939489         0.8162058086          1.653401695       0.001416444963      0.0008841854526       2.30836284e-14      1.442885525e-17      7.842485577e-28      1.207061843e-34         0.6926734604         0.6375658636         0.5121128104         0.2000380757        0.07078685481       0.001290992555       0.000363397866      3.129736743e-08          4.209630862          3.846062434           3.14394372          1.194651566         0.6278050688        0.04164271985       0.008359675525       3.43822192e-05          2.874138251          2.740421028          1.900292753          1.092128011         0.1407407823        0.03807746925      0.0001487129223      0.0001070975218 
15 1          2.340310761           4.67270467          2.067653346          4.130480989         0.7771755762          1.584665041       0.001414614007       0.001114610023      2.308362881e-14      3.443921439e-16      7.842485577e-28      1.807528698e-31          0.680610468         0.6236069525         0.5150405154         0.1828450328        0.05880055134      0.0005345489809      0.0004090864376      3.137031348e-12          3.965913781          3.607670285          2.998533809          1.086604856         0.6440036914        0.05049427209       0.008210803291       1.73385831e-06          2.572091975           2.46195788          1.672740049          1.007712482         0.1200092574        0.03101140266      5.029000465e-05      0.0003385870053 
16 1          2.173569049          4.664709655          1.922007763          4.120018629         0.7102728999           1.62003008      0.0001688878294        0.00157331929       7.53530602e-20      5.345509572e-16         9.493093e-39      3.354963963e-31         0.5650260954         0.5129140792         0.4339269329          0.146159658        0.07945127548       0.003512283586      0.0001802436114      6.993625395e-10          3.696007968          3.369586495          2.778509411          1.027448587         0.5633008877         0.0363063628       0.004094210808       2.96155745e-05          2.549637617          2.452742154          1.618223991          1.048397969         0.1307858252        0.03669770411       0.001571266631       2.12655438e-05 
17 1          2.122677918          4.719254659           1.85340588          4.183106128         0.6188327325          1.660110627      0.0001337291471       0.001449038122      7.465085401e-20      5.000616403e-16       9.49207133e-39      3.203084694e-31         0.4688436748         0.4185194255         0.3717794638         0.1077416985        0.09109239297      0.0004096709502      0.0003348529876      1.723541784e-10          3.516792177          3.177511969          2.717293074         0.8913868891         0.5653512332        0.02318894898       0.002936767144      1.452962007e-07          2.698493507          2.596592096          1.709212935          1.113359798         0.1436062313        0.03801233662      0.0001671112734        6.0860309e-05 
18 1          2.193738677          4.806944653          1.925563778          4.276571189         0.6950706573          1.720791041      0.0009289977984        0.00128273144      2.937313469e-15      2.186528523e-16      1.304906494e-29      6.757769716e-32         0.4876275753          0.447824666         0.3608638925         0.1404896953        0.05692336827      0.0001287552299      0.0001817875909      1.009511215e-14          3.859755472          3.516605792          2.904675317          1.070996058         0.6071073921        0.04010709591       0.006049938924      5.364238863e-08          2.882452197          2.781611572          1.817865618          1.196821934         0.1083025681        0.04358157811      0.0007020293723      0.0009521513544 
19 1          2.216684445          4.917043594          1.958990919          4.365312657         0.7210999126          1.726345179      0.0008982428025       0.001162812238      2.937312521e-15      2.232054561e-16      1.304906494e-29      7.283764004e-32         0.5643453219         0.5135395495         0.4298460221         0.1494620554        0.07576596074       0.001644805964      0.0003001367229      2.014323822e-12          4.027390868          3.665475445           3.04511377          1.099916112         0.6242729508        0.03942806179       0.003276952759      5.172959867e-05          3.044094615          2.914018688          1.975014358          1.200880754         0.1593175992        0.04204101058      7.313774461e-05      4.004614295e-05 
20 1          2.056790099          4.954064254          1.787477306          4.406283307         0.5563587803           1.76952927      8.074367283e-05       0.001064441631      2.430328439e-20      1.925091522e-17       1.04807828e-39      3.566126932e-34         0.3858455332         0.3442915214         0.3090052549        0.08505669172        0.06842061789      0.0001572105465      0.0001078652667       3.93827706e-10          3.587017408          3.221711986          2.821266833         0.8520961033         0.6080992558        0.01880165709        0.00248054735      1.401187783e-05          3.126941008          3.007414714          1.992593008          1.275536426         0.1523234818         0.0479709201      0.0001102277481       0.001157936584 
21 1          2.312128599          5.017089347          2.020318194          4.454312339         0.6687888776          1.784833872      0.0001663863222       0.001541750413      7.351010334e-19      7.101343132e-16      9.144088388e-37      7.356284916e-31          0.546558428         0.4960190062         0.4223246977         0.1370829933        0.06413174237      0.0003158204352       0.000311910002      1.811535487e-11          4.116503751          3.722904873          3.178756758          1.045615536         0.6396620794        0.02627031526       0.005889697571      2.539000509e-06          3.159190804          3.042862915          2.004067027          1.301519194         0.1563282833        0.05778252457      9.322782354e-05         0.0023221144 
22 1          2.284848824          4.961707981          2.017254962          4.386593885         0.7237205243          1.706746033      0.0002271436241       0.001083398237       7.53154499e-19      5.640086274e-17      9.149896219e-37      4.001764866e-33         0.6337691189         0.5808158674         0.4800844674         0.1699188669        0.05314735379      0.0009255419775      0.0003069916386      1.289351026e-12          4.196035422          3.795556317          3.231244039          1.077022709         0.6734147559        0.03155216892         0.0065500091      3.573826146e-06          2.917937976          2.803939604          1.863266104          1.186234592          0.152179419        0.04470333129      0.0007445957428      0.0007506526158 
23 1          2.509532049          5.128066733          2.230871307          4.554466841         0.8297286452          1.834899725      0.0002826515259       0.001487627147      2.757380699e-18       1.29752999e-16      1.247067624e-35      1.180676103e-32         0.7567507228         0.6942055913         0.5707143584         0.2063594831         0.0681688945       0.002740775554      0.0001194831163      2.691732566e-11          4.932067363          4.495774937          3.720411616          1.356695168         0.7247629425        0.04549800433       0.007904679525      2.698845838e-07          3.370011687          3.243846313          2.152749903          1.370948887         0.1485088341        0.06354973189      0.0007504357258       0.006494094122 
24 1          2.240522552          5.061832341           1.98026469          4.506802392         0.7427472558          1.850368719       0.000452310671       0.001877440703      9.368255344e-18       1.07199112e-15      8.461625746e-35      1.347964726e-30         0.6186457202          0.566824779         0.4638301584          0.171615994        0.06808761466       0.001292788725      0.0001048020894      2.444816981e-10          4.383277581          3.997209093          3.295859901          1.218136418         0.6556237424        0.04308685631       0.005781355198      1.300151948e-05          3.411184065          3.284798896          2.170391222          1.397825992         0.1523516869        0.06253365832      4.421313605e-05      0.0004749945122 
25 1           2.12390056          5.009962994          1.870152908          4.454717932          0.678822955          1.801396162      0.0003229399604       0.001699902226      6.653231768e-18      1.786297983e-15      7.214721008e-35      3.712173989e-30         0.4669864576         0.4288449916         0.3463612262         0.1340533754         0.0529574687      0.0004911167506      8.974876892e-05      1.283094439e-08           4.07676883          3.697760648          3.119039608          1.070370592         0.6315043434        0.03781388552       0.004186184692        1.4209205e-06          3.216216096          3.097732383           2.03981791          1.324262669         0.1464644384        0.05239843618      0.0001584687384       0.000258490122 
26 2           2.28903436          3.060055766          2.052737694          2.590400356         0.8800787925         0.6337083603      0.0007233645524      5.973463538e-06      1.850621682e-17      6.239264421e-26       2.05212366e-34      8.326057287e-51            1.1630314          1.066070155         0.8733935649         0.3200229337         0.1183226509      6.950358315e-05      1.807780898e-05      4.539881565e-24           2.79517428          2.469953887          2.264330568         0.5875711698         0.5916625866       0.003045178945        0.03063590362      4.728627105e-13         0.7601876428         0.6849960884         0.6030288028         0.1730601147        0.08984250776      0.0001008476966      5.800456175e-05      1.382886264e-17 
27 2          2.663722123          3.443557439          2.324548696          2.964185035         0.8197605437          0.827313848      0.0003450529862      1.846844564e-05      2.514891912e-18      1.014513789e-23         8.462272e-36      2.041523109e-46          0.844924607         0.7632198349         0.6317311617          0.238635739         0.1804963931       0.002201879698       0.007048560318      1.385257233e-18          3.234992966           2.86477215          2.634065379         0.6634900117         0.6118033887       0.002012137075        0.01738771487      1.473474459e-05         0.9684636031         0.8926431597           0.72395179         0.2700598667        0.06303425209      0.0004260718917      2.630050222e-06      3.446121467e-11 
28 2            2.1256555          2.704620893          1.909239219          2.266401502         0.8227170987         0.4946413962      0.0005575970321      7.088380076e-07      7.255878372e-18      2.630202502e-31      4.044034832e-35      1.293920413e-61          1.066077823         0.9716676989         0.8139985054         0.2782369796         0.1157096733      4.767934005e-05         0.0001395605      7.108566249e-26          2.324121525          2.041495622          1.912882414         0.4540553166          0.523241412       0.001323426047        0.01332314513      1.062503826e-10         0.5511144694         0.4934669702         0.4444969184         0.1172461438         0.0720815345      1.587676498e-05      3.137472133e-06      3.350044451e-22 
29 2           2.66425567          3.462900433          2.346849335          2.973524791         0.8887118342         0.8057816344      0.0004784386113      6.424628048e-06      5.403658118e-18      2.522553881e-27      3.791630879e-35      1.024033147e-53         0.9562656441         0.8707035577         0.7018167685         0.2848377699         0.1851475883       0.003101733419       0.005101405528      3.796686395e-10           3.27906334          2.906097424          2.668172127         0.6748933281         0.6061900006       0.003173703154        0.01947593556      6.289878578e-05         0.9324638223         0.8576688294         0.6993732911         0.2575430198        0.07016818986      0.0003824567582      1.573780889e-05       7.29586508e-14 
30 2          2.322778683          2.927183244          2.081389128          2.490536808         0.8822748328         0.6298115112      0.0008318201977      4.483915317e-06      2.170640586e-16      2.187130977e-27      7.066019192e-32      9.969139518e-54          1.173399588          1.072399364         0.8863029412         0.3174585042         0.1317933231      0.0001749228888      0.0001163393166      9.806915494e-22          2.733621634          2.427522257           2.20358731         0.5862886908         0.5280674148       0.002359298053        0.01195375725      1.978171545e-10         0.6755697287         0.6117671068         0.5306839169         0.1595280666         0.0673469479      0.0001227514586      1.609254504e-05      4.922361338e-17 
31 2          2.514933806           3.42962927          2.204737629          2.962076201         0.8052588522         0.8601579207      0.0003645283655        2.7994615e-05      2.936221089e-18      1.026793329e-23      1.070485044e-35      1.997557807e-46         0.8925230024         0.8039978646         0.6852072518         0.2309772113         0.1698143593       0.001722542705       0.001852463765      6.982159004e-20          3.273048967          2.915397836          2.629941481         0.7108413428         0.5815062164       0.002098327211       0.009849501821      1.185052874e-06          1.033860575         0.9527529601         0.7714811716          0.290396651        0.07366903169       0.001252184608      4.982197672e-05      1.014579882e-11 
32 2          2.335132466          2.922341515          2.096934245          2.464739145         0.8818260471         0.5857443065      0.0005494927506      5.224444225e-06      5.488730202e-18      3.503453817e-26      2.044709166e-35      2.648118228e-51          1.182545753          1.082298465         0.8900772647         0.3237711467         0.1287880499      0.0004351900234      9.739543181e-05      7.894003387e-21          2.558750785          2.259913263          2.078987305         0.5309745493         0.5493290677       0.002191056851        0.01085681151      4.266754363e-09         0.6323918416         0.5690537571         0.5025972752         0.1428977703        0.07915506408      6.331445042e-05      1.045779172e-05       9.74377758e-16 
33 2          2.430272488          3.216112858          2.127332523          2.762998868         0.7667219957           0.74730504      0.0002466235743      8.340741662e-06      2.057701806e-19      1.451259419e-25      3.862754321e-38      4.415329095e-50         0.7324701532          0.665752171         0.5374244112         0.2180665059         0.1471574116       0.001437585083       0.008974101541      3.492702522e-21          2.954904834          2.612348506          2.422830399         0.5870095561         0.5540747124       0.001052558654        0.01566117448      3.622127624e-14         0.9362374211         0.8586678258         0.7095447543         0.2501538988        0.07111924188      0.0001628556958      1.075914541e-05      2.145872699e-17 
34 2          1.975804998          2.437190651          1.765445546          2.050312608         0.7404280849         0.4795270836      0.0008259074056      2.838057116e-06      4.641650064e-16      1.134701897e-27      3.283712111e-31      2.918042628e-54         0.9502285011         0.8540583219         0.7531693521         0.2169726264          0.131874121      6.556518953e-06       0.000216237159      8.132976048e-32          1.965675577          1.733851971          1.601620814         0.4024425533          0.429192346        0.00119649385       0.006457896381      1.230155203e-14         0.5042742079         0.4538183328         0.4016280985         0.1129262812        0.05991894067      8.631420629e-06      8.209955588e-06      1.458080778e-18 
35 2          2.352143834          3.269455787          2.044151356          2.805349116         0.6951994512         0.7666785866      0.0004077092241      1.325687979e-05      1.251263569e-17      1.451422597e-24      2.435236013e-34      4.297688674e-48         0.6618925079         0.5911970868         0.5074646092         0.1723464105         0.1574366915      0.0009446255334       0.007228596425      1.119283939e-14          2.802928479          2.469247699          2.318602433         0.5345236607         0.5529641075       0.005111277537        0.01105177785      6.968255207e-05         0.8547375878         0.7873800766         0.6366185081         0.2411815209        0.06705430538      0.0003353473056      5.276414966e-06      7.722469116e-16 
36 2          2.085784324           2.93553294          1.874132521          2.492588213         0.8134532197         0.6195614606      0.0006203925909      1.021180414e-05       2.85674597e-17      1.451049462e-24      9.323864119e-34      4.297688394e-48         0.9882956542         0.9051727553         0.7451452957         0.2685553879        0.09717274811       4.22449308e-05      4.856812176e-05      4.495709996e-27          2.547611887           2.26105311           2.04822393         0.5526581392         0.5147608143       0.001888609992        0.01032502688      6.792549505e-13         0.7087948498         0.6374168557         0.5650331286         0.1583318351        0.08727773744      0.0001468984275      6.627890566e-06      1.756493922e-18 
37 2           2.49414135          3.140451888          2.175523486          2.676511071         0.7427957841         0.6701799304      0.0002271799648      3.776193541e-06      9.404608372e-19      4.285608842e-27      1.468710428e-36      4.087818695e-53         0.7499203056         0.6766041657         0.5648385791         0.2064070571         0.1506736585      0.0008910225454       0.007832763133       1.05460954e-14          2.724113891           2.39131429          2.263526916         0.5079419315         0.5710007065        0.00101612111        0.01867405404        1.9025317e-08          0.819246017         0.7487921935         0.6273360623         0.2115706703         0.0661450998      5.995253902e-05       3.50564197e-05      7.391151006e-22 
38 2          2.418759977          2.898516863          2.179108762          2.440434686         0.9703566022         0.5552621733       0.001336664929      1.095726934e-06      6.651947727e-16      1.688091789e-30      3.861174078e-31      5.844023827e-60          1.164457894          1.077771318         0.8400377588         0.3607065528         0.1231104766       0.001693798248       0.002248489567      1.092523883e-15          2.663202722           2.34430494          2.184574618         0.5296261382         0.5922371071       0.001855954087         0.0121368816      1.902922823e-08         0.6010650944         0.5427664607         0.4742302198         0.1396020402        0.06743704769      1.234005441e-05      6.396350617e-05      6.366258458e-19 