ITEM: TIMESTEP
0
ITEM: NUMBER OF ENTRIES
4812
ITEM: BOX BOUNDS xy xz yz pp pp pp
-0.026733 19.1744 2.95065e-05
0 11.54 -0.026733
0 30 1.98508e-05
ITEM: ENTRIES c_2[1] c_2[2] c_2[3] c_2[4] c_2[5] c_2[6] c_2[7] c_2[8] c_2[9] c_2[10] c_2[11] c_2[12] c_2[13] c_2[14] c_2[15] c_2[16] c_2[17] c_2[18] c_2[19] c_2[20] c_2[21] c_2[22] c_2[23] c_2[24] c_2[25] c_2[26] c_2[27] c_2[28] c_2[29] c_2[30] c_2[31] c_2[32] c_2[33] c_2[34] c_2[35] c_2[36] c_2[37] c_2[38] c_2[39] 
                   0                  192        -0.6868341752                    0         0.3810717133                    0        0.05682081181                    0       0.006610072794                    0      1.867962667e-13                    0      1.386656412e-62                    0     1.636055794e-124                    0                    0                    0                    0                    0                    0                    0                    0        0.02616868318        0.02186957633        0.02341534254       0.003034645479        0.01081652279      2.063580893e-06      -5.71936854e-06      -3.78897889e-32        0.07138683195        0.06251738111        0.06057064261        0.01184859098        0.01330903501      1.338216359e-09      3.908916044e-07     -3.824638227e-58 
                   1                   53          -4.09997934                    0          0.553907534                    0         0.0825920021                    0       0.009608084233                    0      2.715180787e-13                    0      2.015577139e-62                    0     2.378092098e-124                    0                    0                    0                    0                    0                    0                    0                    0        0.03597449159        0.03016354573         0.0321322782       0.004224189082        0.01393349129      2.532986439e-06      1.792843321e-05      5.924497297e-32         0.1043390535         0.0908000789        0.08949669823        0.01625585484        0.02204246251       1.63830975e-08      9.572702961e-08      4.053221445e-58 
                   1                    2          2.646948957                    0         0.1081318638                    0        0.01612331765                    0       0.001875656119                    0      5.300479611e-14                    0      3.934738188e-63                    0     4.642427031e-125                    0                    0                    0                    0                    0                    0                    0                    0        0.01008980569       0.008136533199       0.009334938802      0.0008317341802       0.005620467403      5.617684506e-07      1.836717876e-05     -5.503703871e-33        0.02287900578        0.01915550499        0.02044906121       0.002665098916       0.009182924398      3.990884814e-09      1.633065426e-06      -3.20231712e-58 
                   0                  153          2.924832962                    0       -0.01170282715                    0      -0.001248643307                    0     -3.672105382e-05                    0     -1.358225035e-20                    0      -7.06545204e-90                    0     -8.06348321e-177                    0                    0                    0                    0                    0                    0                    0                    0     -0.0003646574288      -0.000277893066     -0.0003454560831     -2.107718071e-05     -0.0002586132951     -6.914386714e-11     -3.313787152e-05     -9.688233398e-69     -0.0006471317075     -0.0005278860923      -0.000594412369     -5.767715855e-05     -0.0003131891343     -1.936583774e-11      8.381125895e-07      1.438513492e-63 
                   1                   26         -5.704289587                    0         0.1131755182                    0        0.01207536021                    0      0.0003551213943                    0      1.313510148e-19                    0      6.832846335e-89                    0     7.798020761e-176                    0                    0                    0                    0                    0                    0                    0                    0       0.003781680504       0.002987439909       0.003520300377      0.0002863257591       0.002236681632      2.725150815e-10      0.0001585977485      5.047439186e-69       0.006473613922       0.005157658016       0.006029595872      0.0004858201091       0.003628794062      7.061964941e-10      0.0001778878524       2.28910102e-63 
                   1                    2          1.428816172                    0        0.03928228134                    0       0.004191257124                    0      0.0001232596832                    0      4.559084508e-20                    0      2.371624149e-89                    0     2.706628168e-176                    0                    0                    0                    0                    0                    0                    0                    0       0.001388941934        0.00108318652       0.001299748883      9.771419031e-05       0.000868901997      7.591765058e-11      9.609188645e-05     -2.425715419e-69       0.002264372276       0.001829834343       0.002094194472      0.0001861447375       0.001163147446      1.681897866e-10      2.246873272e-05       -1.5712091e-63 
                   0                  186        -0.3019810594                    0         0.6127635784                    0         0.2363233342                    0         0.2558406819                    0       0.001768554248                    0      5.759791895e-16                    0      4.022348994e-32                    0                    0                    0                    0                    0                    0                    0                    0         0.2155541929         0.2335965782        0.07874800362         0.1621983245      -0.008000197247        0.03580045673     -0.0003800700286      4.317893002e-07         0.8225383466         0.8160728593          0.466266173         0.4035442644       0.004333350756        0.02951540174     -1.252448548e-05      1.911168123e-05 
                   1                   45       -0.06969847725                    0        0.07602045939                    0        0.02931866231                    0        0.03174001662                    0      0.0002194097546                    0      7.145692748e-17                    0      4.990192451e-33                    0                    0                    0                    0                    0                    0                    0                    0        0.02912321583        0.02988457923        0.01336944915         0.0196112399       0.009820078404        0.01204676012      0.0004040841374     -4.602778593e-07         0.1290473515         0.1237493334        0.08415778357        0.05002041195       0.005873204447       0.002952572762      5.679026342e-05      5.768845697e-07 
                   1                    2          2.686533427                    0         0.1902169898                    0        0.07336061549                    0        0.07941928355                    0      0.0005490030367                    0      1.787982046e-16                    0      1.248636741e-32                    0                    0                    0                    0                    0                    0                    0                    0         0.1248523589         0.1027817348        0.09657939981        0.03487360189         0.1096661577        0.01311826537       0.001198315559       5.63046676e-07         0.3218962682         0.3012398466         0.2261630567         0.1087622462        0.02505448077        0.00338388639      1.154446027e-05     -2.958903057e-05 
                   0                  156          3.026430414                    0         -0.171490075                    0       -0.06109303026                    0       -0.05939260753                    0     -0.0001567481493                    0     -7.351854787e-19                    0     -2.565279873e-37                    0                    0                    0                    0                    0                    0                    0                    0        0.01701206455       0.003188120284        0.04423958888       -0.03103563252        0.01800081386      -0.002362942703     -1.972630543e-06     -1.493523094e-08        -0.2055708995        -0.2050350989         -0.115774508        -0.1009672336        0.01130225864       -0.01097295598     -2.946136054e-05       0.009394550402 
                   1                   30         -1.979941831                    0         0.5338099219                    0          0.190168823                    0         0.1848757906                    0      0.0004879216325                    0      2.288466566e-18                    0      7.985137617e-37                    0                    0                    0                    0                    0                    0                    0                    0         0.2185376207         0.2174741961          0.127374301         0.1025108361       -0.02218762102       0.002391990797     -3.626692773e-06      1.527629986e-08         0.5511839028         0.5645041007         0.2739215487         0.3197864279      -0.002276235787        0.03907477489     -5.864495532e-05       0.008530498542 
                   1                    2          1.727590615                    0         0.4227614901                    0         0.1506080192                    0         0.1464160959                    0      0.0003864193375                    0      1.812397064e-18                    0       6.32399013e-37                    0                    0                    0                    0                    0                    0                    0                    0         0.3138910333         0.2721026013         0.2672957247        0.05237355562        0.08433565077        0.00227460492      4.079945607e-06      3.844282265e-08          0.486404428          0.487813431         0.2630140396         0.2577090445        0.01764582181        0.02945929567      6.055748318e-05       0.004148838629 
                   0                  155           6.12495783                    0        -0.5008283627                    0       -0.07571093114                    0      -0.009247625584                    0     -3.918358294e-13                    0     -1.660023488e-61                    0    -1.721796763e-122                    0                    0                    0                    0                    0                    0                    0                    0       -0.06871451713       -0.05454725501       -0.06478662931      -0.004294559409        -0.0401942304     -8.843387141e-07     -0.0002553472035     -2.814731728e-33       -0.08466064893       -0.07324025478        -0.0722391332       -0.01367113489       -0.02297216029     -4.301914014e-06     -1.542095519e-06      -1.10163201e-24 
                   1                   29         -3.343555052                    0         0.4721515117                    0        0.07137581105                    0       0.008718117271                    0      3.693997644e-13                    0      1.564972469e-61                    0     1.623208678e-122                    0                    0                    0                    0                    0                    0                    0                    0        0.06408495165        0.04920964888        0.06085453866       0.003548353734        0.04425276162       1.26536485e-06       0.004069591701     -1.031415367e-33        0.07921102763        0.06926496278        0.06685411394        0.01358916242        0.01705203275      5.413987731e-06     -1.909021867e-07      8.194801153e-25 
                   1                    2          2.652984003                    0         0.1107588143                    0        0.01674356644                    0       0.002045123882                    0      8.665498025e-14                    0      3.671162559e-62                    0     3.807774923e-123                    0                    0                    0                    0                    0                    0                    0                    0        0.02091248108        0.01399002494        0.02088894252      3.107055807e-05        0.02185728054      2.819993742e-07       0.006110380495     -1.161566307e-34        0.01952444602        0.01779252228        0.01528887303       0.004660586787        0.00120630561     -3.235572904e-07     -1.049219439e-06      4.139635834e-25 
                   0                   81         -3.811198564                    0        0.07306370649                    0       0.007633888345                    0      0.0002030418704                    0      3.163302688e-20                    0      6.419150735e-91                    0     1.491571132e-179                    0                    0                    0                    0                    0                    0                    0                    0       0.002048125818       0.001584801999       0.001954457363      0.0001022182789       0.001340490286      1.299599385e-12      0.0001021325524      4.726656289e-89       0.004104278992       0.003222986679       0.003867687417       0.000258704698       0.002494762117       3.81409512e-10      0.0001771184204      2.289555353e-60 
                   1                   46          1.526515529                    0        -0.0151899598                    0      -0.001587086978                    0     -4.221244718e-05                    0     -6.576512879e-21                    0     -1.334542775e-91                    0    -3.100979491e-180                    0                    0                    0                    0                    0                    0                    0                    0     -0.0004401948009     -0.0003412445696     -0.0004198728879     -2.217168822e-05     -0.0002848991516     -8.138124532e-14     -2.141882355e-05      4.705575866e-89     -0.0008440150854     -0.0006540099586     -0.0007987555982     -4.950715828e-05     -0.0005426480192     -9.928217067e-11     -6.168412566e-05     -1.019710352e-60 
                   1                    2          2.133455663                    0        0.01627840912                    0       0.001700811027                    0      4.523721551e-05                    0       7.04775843e-21                    0      1.430170558e-91                    0     3.323182779e-180                    0                    0                    0                    0                    0                    0                    0                    0      0.0004832380857       0.000368665657      0.0004635336504      2.150293297e-05      0.0003343148989      2.016526645e-13      3.877445852e-05     -1.594959738e-89      0.0009238810099      0.0007292831834      0.0008681089624      6.098194234e-05      0.0005463749086       6.00142929e-11      3.288986976e-05      4.893820101e-61 
                   0                   84        -0.7099640634                    0         0.6057851795                    0         0.1218299167                    0        0.03640531823                    0      3.020477137e-09                    0      2.478428812e-43                    0      1.783548439e-86                    0                    0                    0                    0                    0                    0                    0                    0        0.09990660418        0.08773816435        0.08285223012        0.01883386962        0.02268850242      6.358086506e-06     -1.123886403e-06     -1.328610091e-32         0.2495716578          0.224131866         0.2009645288        0.05347712186        0.02738943522      0.0001229140768     -7.303788295e-08      4.605184326e-17 
                   1                   49          3.459332041                    0        -0.6432078743                    0        -0.1293560232                    0       -0.03865427572                    0     -3.207068684e-09                    0     -2.631535042e-43                    0     -1.893728072e-86                    0                    0                    0                    0                    0                    0                    0                    0       -0.08205217843       -0.07271419938       -0.06687211726       -0.01677050659       -0.01558248678     -1.738438171e-05     -1.286782582e-06     -1.657618816e-32        -0.2745780439         -0.245472792        -0.2226117203       -0.05724183331       -0.03627907809     -0.0001254783354     -1.886729431e-08     -5.193345531e-17 
                   1                    2           2.70995035                    0         0.1579357165                    0        0.03176257167                    0       0.009491318399                    0      7.874758858e-10                    0      6.461571585e-44                    0       4.64993219e-87                    0                    0                    0                    0                    0                    0                    0                    0        0.03643506012        0.03067576641        0.03227874977       0.004585873291        0.01416254633      2.087825197e-06      1.002529736e-06     -2.165481562e-33         0.0749198218        0.06456191763        0.06331868956        0.01285866477        0.02514732727      4.943363105e-05       1.10354562e-06      9.513811181e-18 
                   0                   21          2.714680151                    0       -0.09220680021                    0       -0.03931543481                    0       -0.04797583526                    0     -0.0009712921487                    0      -3.59953566e-14                    0     -9.327488884e-28                    0                    0                    0                    0                    0                    0                    0                    0        0.07204888792        0.05203322499         0.0888444952       -0.02137933943        0.02029064133      -0.006693009966     -1.650661106e-08     -8.977697119e-12        -0.1886689815        -0.1853571601        -0.1085625019       -0.08771780931       0.007497909548       -0.00301319188     -3.711133302e-05       0.008840712798 
                   1                   22          2.021976388                    0         -0.401504135                    0        -0.1711946365                    0        -0.2089053757                    0      -0.004229382357                    0     -1.567377296e-13                    0     -4.061550068e-27                    0                    0                    0                    0                    0                    0                    0                    0        -0.1814712986        -0.2044284043       -0.04714041316        -0.1510048704        0.06624829569     -0.0006573106787      6.385586705e-08     -2.943857631e-11        -0.5623392936        -0.5841941764        -0.2533887998        -0.3571300726       0.004454227783       -0.04639869678      0.0002713913965       0.000449522654 
                   1                    2          1.735076486                    0         0.4001614071                    0         0.1706221198                    0         0.2082067451                    0       0.004215238269                    0      1.562135603e-13                    0      4.047967252e-27                    0                    0                    0                    0                    0                    0                    0                    0         0.4351511597         0.3846846011         0.3510902893        0.09540638178         0.1091602683       0.003311753668      6.304859596e-08       4.06064925e-11         0.6283932657         0.6418940206          0.314133551         0.3645361006        0.01310822252        0.05046237715       0.000254440846       0.007191761092 
                   0                   20          5.946433982                    0        -0.8487039102                    0        -0.2168843164                    0        -0.1166163602                    0     -1.612453052e-06                    0     -7.103763511e-31                    0     -7.322246648e-62                    0                    0                    0                    0                    0                    0                    0                    0        -0.3655451813         -0.324606334        -0.3007622428       -0.07123710243       -0.05529897624     -1.899085324e-05      5.507004962e-05     -4.509210581e-28        -0.4726038416           -0.4487593        -0.3209235049        -0.1700523037       -0.01624715394      -0.006984298758      1.669121455e-07     -1.498909949e-06 
                   1                   21         0.6590598974                    0       -0.09445915207                    0       -0.02413881729                    0       -0.01297918199                    0     -1.794629979e-07                    0     -7.906355441e-32                    0     -8.149523071e-63                    0                    0                    0                    0                    0                    0                    0                    0       -0.02900408098        -0.0240850601       -0.02808615228     -0.0009900076408       -0.00702914752     -1.846984679e-05     -0.0001128134811      1.191838382e-27       -0.04916990328       -0.04909842347       -0.02853485394       -0.02310556755       0.004842273472      -0.001083006554      3.769168977e-06     -1.452014938e-07 
                   1                    2          2.491998662                    0         0.2344618176                    0        0.05991617385                    0        0.03221628114                    0      4.454541435e-07                    0      1.962476295e-31                    0      2.022834157e-62                    0                    0                    0                    0                    0                    0                    0                    0         0.1638823991         0.1351243974         0.1531168542        0.01174298313         0.0667883195      4.911046178e-06      0.0002251680843      1.637525164e-28          0.139769239         0.1327873969        0.09256989626        0.05298986605        0.01053979633       0.001484743106      3.531867983e-06      1.403935471e-06 
                   0                   25          2.924862468                    0       -0.03674052764                    0      -0.004424783292                    0     -0.0002240253064                    0     -7.064653251e-18                    0     -1.759009215e-79                    0      -5.9183083e-157                    0                    0                    0                    0                    0                    0                    0                    0      -0.002084733549      -0.001618922589       -0.00193923739     -0.0001597221436      -0.001378029636     -4.975819876e-11     -0.0001025697041     -3.939068807e-83      -0.003157523337      -0.002643037543      -0.002835492973     -0.0003525182082      -0.001203409667      5.000496356e-10      5.657568791e-06     -1.031742548e-48 
                   1                   26          5.835701208                    0        -0.3328151429                    0        -0.0400820287                    0      -0.002029339782                    0     -6.399536785e-17                    0     -1.593403635e-78                    0    -5.361116862e-156                    0                    0                    0                    0                    0                    0                    0                    0       -0.02363139731       -0.01921816356        -0.0218221177      -0.001976883737       -0.01143314568     -6.924778546e-11     -0.0001805355788     -9.213584203e-84        -0.0265407179       -0.02160009747         -0.024264489       -0.00249611063       -0.01324143594     -4.389875616e-08     -0.0002357308007     -2.138136448e-49 
                   1                    2          1.428816172                    0         0.1233191443                    0        0.01485173252                    0      0.0007519382778                    0      2.371242465e-17                    0      5.904093518e-79                    0     1.986473145e-156                    0                    0                    0                    0                    0                    0                    0                    0        0.01020300829       0.008056881712       0.009597641016      0.0006611101153       0.005959262698      -4.97291239e-13      0.0003060686125     -2.041868844e-83       0.009681854892       0.008176438615       0.008621228047       0.001162350875       0.003466854013       1.00397152e-08     -7.878260394e-05      3.176701314e-49 
                   0                   24          6.113297447                    0        -0.3991063372                    0       -0.05529079772                    0      -0.004908773036                    0     -1.490738688e-14                    0     -7.915976599e-68                    0     -6.28566442e-135                    0                    0                    0                    0                    0                    0                    0                    0       -0.04795582087       -0.03853204298       -0.04440149435      -0.003896770084       -0.02577600818     -5.710548121e-07      -0.000785008356     -4.341294043e-39       -0.05134656821       -0.04415059911       -0.04473116554      -0.007255999369       -0.01381438104     -1.027630006e-06      2.442120495e-07     -1.017781273e-32 
                   1                   25          4.088425718                    0        -0.4022158653                    0       -0.05572158088                    0      -0.004947018402                    0     -1.502353372e-14                    0     -7.977651771e-68                    0     -6.33463746e-135                    0                    0                    0                    0                    0                    0                    0                    0       -0.04507169538       -0.03639712857       -0.04120772444      -0.004246417833       -0.02397473031     -4.753551481e-07     -0.0007274246381      2.231447406e-39       -0.05368372494       -0.04597287529       -0.04696223577      -0.007369977191       -0.01544976851     -6.927395129e-07     -1.197126421e-06      -7.95587549e-32 
                   1                    2          2.133370354                    0         0.1430414167                    0        0.01981645817                    0       0.001759325232                    0      5.342871162e-15                    0       2.83711984e-68                    0     2.252808988e-135                    0                    0                    0                    0                    0                    0                    0                    0        0.02129245344        0.01586419726        0.02032200002       0.001068445905        0.01637215847      1.723244207e-07       0.002549171725     -5.665910607e-40        0.01837427627        0.01629607454        0.01521112098       0.003473231839       0.002718611072       4.02641715e-07      1.559718974e-08     -1.976684888e-32 
                   0                  141          2.180630218        0.02613996337                    0       0.005355514136                    0       0.001683535684                    0      2.163034432e-10                    0      1.199327448e-43                    0      9.388775204e-86                    0        0.02586206223        0.02111977995        0.02572164752      7.738620824e-05       0.007437086467     -9.873093482e-08      2.658904861e-05      4.449961769e-61       0.003418904021       0.002957471441       0.001683167169       0.002026554821       0.003714940991      2.398686728e-05      2.855442911e-05       7.41064887e-13                    0                    0                    0                    0                    0                    0                    0                    0 
                   1                    5         -4.161720729         0.9013095373                    0         0.1846588651                    0        0.05804854228                    0      7.458172514e-09                    0      4.135297558e-42                    0      3.237262622e-84                    0         0.1154871576          0.105189744        0.08998035706        0.02804104086       0.007927618303      6.943727684e-08       3.17130659e-06      5.920592013e-63         0.4143442412         0.3626581241         0.3449049887        0.07679090325         0.1003478726      0.0003486823784      2.330431542e-05       5.67779026e-11                    0                    0                    0                    0                    0                    0                    0                    0 
                   1                    1          3.393477438         0.0211200746                    0       0.004327047306                    0       0.001360231411                    0      1.747647765e-10                    0      9.690099716e-44                    0      7.585765515e-86                    0       0.009815098825       0.008371509926       0.008965678349      0.0009148156438       0.001946608705     -2.693515492e-08      2.651562948e-06     -6.357023113e-62        0.01380095186        0.01189441347        0.01123741387       0.002848679936       0.005032899455     -6.367059747e-05      -6.09941685e-06      5.860239526e-12                    0                    0                    0                    0                    0                    0                    0                    0 