ITEM: TIMESTEP
0
ITEM: NUMBER OF ATOMS
54
ITEM: BOX BOUNDS xy xz yz pp pp pp
-2.6732977382222696e-02 1.9174382766165152e+01 2.9506541316800546e-05
0.0000000000000000e+00 1.1540010645371973e+01 -2.6732977382222696e-02
0.0000000000000000e+00 2.9999991154072013e+01 1.9850802815995338e-05
ITEM: ATOMS id type c_1[1] c_1[2] c_1[3] c_1[4] c_1[5] c_1[6] c_1[7] c_1[8] c_1[9] c_1[10] c_1[11] c_1[12] c_1[13] c_1[14] c_1[15] c_1[16] c_1[17] c_1[18] c_1[19] c_1[20] c_1[21] c_1[22] c_1[23] c_1[24] c_1[25] c_1[26] c_1[27] c_1[28] c_1[29] c_1[30] c_1[31] c_1[32] c_1[33] c_1[34] c_1[35] c_1[36] 
1 1          2.142556021          4.873884691          1.862643711          4.325965113         0.5925869058          1.727247628      7.701425245e-05       0.001411792492      1.360973401e-20      1.568909442e-16      3.313277156e-40      1.887192805e-32         0.4801691512         0.4294079318         0.3820517822         0.1082012258        0.08082020476      0.0001454774228      0.0001953923671      1.713681108e-11          3.565016864            3.2269284            2.7479581         0.9109928017          0.541881407        0.02363519212       0.004678880605      6.083235389e-07          2.933404997          2.817880096          1.877167054          1.188758099          0.157628519        0.04825159886      8.980883422e-05       0.002495131715 
2 1           1.92081551          4.714485538          1.660007127          4.211710839         0.5026118182          1.748670186      0.0001218388956       0.001501105203      2.186199483e-19      5.064536791e-16      8.224715156e-38      2.026993449e-31         0.2849248773         0.2560146913         0.2239985993        0.06753701693        0.04657832631      0.0001020817375      8.127306064e-05      8.168195086e-24          3.269968374          2.933048537           2.57460747         0.7746744597          0.583171192        0.02053900559       0.002137000716      2.803341667e-09          2.904203933          2.807443425          1.818172946          1.224415327         0.1230443537        0.05046241053       0.001459260877       0.007415783282 
3 1          2.060222183          4.977570415          1.804156657          4.438685253          0.619263737          1.826613737      0.0001519878627       0.001668073532      2.189877118e-19      8.569217594e-16      8.224740626e-38      9.773115852e-31         0.4003511134         0.3624033766          0.306809226         0.1040825965        0.06317798257       0.000768386869      0.0006139656892      1.036186055e-08          3.931015727          3.555421404          3.033986501          1.001519794         0.6175790662        0.03078753608       0.003224030113        1.9696785e-06          3.292468369          3.165898139          2.102426914          1.339402598           0.15706702         0.0560664033      0.0004272918679      0.0004710107564 
4 1           2.45989489          5.223197506          2.180970371          4.641625348         0.8344043779          1.870302226      0.0005160327232       0.001516870967      7.035138489e-17      1.164413641e-16      7.862429383e-33      7.525554863e-33         0.7379156845         0.6785143399         0.5470473289         0.2119127208        0.08049717852       0.003502034333      0.0001638150359      2.256468775e-08           4.91080424          4.501179836          3.653131938          1.408564636         0.6460010281        0.04534704464       0.005873762342      5.631891062e-07          3.554951072          3.403946119          2.307222514          1.404656906         0.2017172587         0.0632260599      0.0002681897874       0.001931894549 
5 1          2.491167998          5.193695754          2.219365057          4.588495666         0.8520658083          1.766140732        0.00048769979       0.001166233995      7.034097533e-17       4.94721439e-17      7.862428488e-33      1.786291019e-33         0.8247289473         0.7601557338         0.6170140177         0.2303449159        0.05457906038       0.002432901018       0.000180709164      7.517805964e-15          4.850487536          4.421397501          3.648578705          1.343700373          0.732295321        0.03853028414       0.005594808392      2.055152123e-06           3.27716409          3.126156129          2.161037755          1.253947484         0.1762840505        0.04933070486       0.000145539517      0.0003190631361 
6 1          2.445885256           5.22854508          2.165722222          4.614571828         0.7997776015          1.741331057      0.0002185438371        0.00090266592      6.419312295e-20      2.706236223e-17      2.687826022e-39       1.04684708e-33         0.7458726139         0.6846660802          0.562234179           0.20369375        0.06163995444       0.002403816597      0.0004279816954       3.35731183e-14          4.573650218          4.159942738          3.465358919          1.239427188         0.6968621461        0.03813930346       0.008334992145      4.751509138e-07          3.285653246          3.117070727          2.204878815          1.212433511         0.2165685566        0.03942780836      0.0003424159821       0.005208088727 
7 1          2.206592379          4.889567996          1.935250498          4.332971621         0.6586868148          1.717142485      0.0001626691744       0.001249704141      7.485857178e-20      5.250862763e-17      5.963954138e-39      1.289642179e-33         0.5104817643         0.4698710595         0.3838748543         0.1397228662        0.03202478923      0.0004932402752      0.0002205916306      3.957855537e-13          3.856464908          3.484843293          2.974619447         0.9858939552         0.6466192293        0.03316837406       0.005591067314       1.80747499e-05          2.914130144          2.803364283          1.849807483            1.1970852         0.1544564398        0.04554830276       0.001903432439       0.001995602144 
8 1          2.289181195          4.830092486           2.00708406          4.302254201         0.6616048399          1.756620602      8.988601998e-05       0.001448105644      2.023768901e-20      1.994182497e-16       7.27980803e-40      3.955605273e-32         0.5522019533          0.502466229         0.4268932608         0.1382598434        0.05402464846      0.0004847129243      9.396376754e-05      1.810611696e-13           4.04300446          3.649845401          3.133602107          1.013757801          0.656452598        0.02532896951       0.005633351205      9.832937339e-07          2.975477034          2.877181122          1.864216445          1.252579424         0.1177593272        0.05211495548      0.0006882193525        0.01117078798 
9 1          2.213111271          4.614622371          1.944707628          4.077795476         0.6687567866          1.612720337      0.0002241694654       0.001771923589      3.754512096e-18      1.527669571e-15      2.332446983e-35      3.095019813e-30         0.5486846557         0.4927911729         0.4356484869         0.1250001813        0.07949087547      0.0008529655701      8.580941045e-05      3.065500385e-10          3.705701496          3.358377317          2.839444514         0.9661672182         0.5744950322        0.02362751913       0.005001776262      1.166449013e-06          2.444239092          2.357964881          1.530705717          1.030801927         0.1325272564        0.03729169156      0.0001469987788      3.233063269e-06 
10 1          2.299652469          4.709035829          2.035909035          4.158943345          0.781369499          1.600925182       0.001080315661      0.0009172103974      2.508478979e-15      6.963502294e-17      9.508657023e-30      6.094957237e-33         0.5398520635         0.5045944786         0.3822772103         0.1747697252         0.0346190524       0.000449208019      3.507845061e-05      1.579921125e-11          4.040785809          3.678677152          3.051606665          1.109043326         0.6362665834        0.04508902276       0.003610892487      9.248095818e-05           2.54429272          2.445717924          1.623049964          1.034661283         0.1222331466        0.03344435313      0.0002200944149      0.0007851320179 
11 1          2.300713158          4.954385763          2.027262771          4.372637272         0.7247313864          1.667644206      0.0008681452963       0.001112813152      2.504724467e-15      1.505261786e-16      9.508633699e-30      3.024989665e-32         0.5400831847         0.4908953193         0.4144914242         0.1390248327        0.06699180483      0.0003255045331      5.895162656e-05      1.153106701e-10           3.95328098          3.590194286          3.005642232          1.060631669          0.622824756        0.03018653279       0.009365125998      5.191678009e-06          2.907308057          2.770515106          1.918072023          1.111007526         0.1710916946        0.03700602699      9.856793795e-05      0.0005973464982 
12 1          2.244208072          4.959096204           1.96844523          4.390344244         0.6633765474          1.726237221      0.0001084997843       0.001588322603      5.463900011e-20      1.598144465e-15       5.23597366e-39      3.626741637e-30         0.5148181176         0.4663694235         0.3988390055         0.1281878103         0.0666833901      0.0002624114254      1.951192597e-05      3.777017136e-08          3.948960127          3.564237396          3.063851104         0.9867390377         0.6330225806        0.02297230346       0.005618288144      3.680494554e-06            3.0012191          2.882431503          1.917605952           1.21865711          0.158706399        0.04232614553      0.0003347186833      0.0002568951803 
13 1          2.175795411          4.944740768          1.900976841          4.413899967         0.6205650536          1.846960348      0.0001557835175       0.001922360369        3.7300077e-19      1.421318158e-15      2.375739433e-37      2.045654222e-30         0.4153014963         0.3796457958         0.3131373992          0.113230314        0.04809388879      0.0001249863648      6.787081566e-05      9.068866878e-19          3.958082557          3.575683743          3.064368355         0.9977312302         0.6395205235        0.03019160594       0.003674083068      6.812674331e-08            3.3233848          3.213172522          2.080392398          1.400163278         0.1350468515        0.06232474344      0.0008790549247       0.002537235253 
14 1          2.036415621          4.689844094          1.778651224          4.138678496         0.5842584281          1.567985612      0.0001467762664      0.0008240682559      3.729436113e-19      1.677920731e-17      2.375739359e-37       1.54504131e-34         0.3902183548         0.3567335122         0.2958862972         0.1043032666        0.04003498211      0.0001702863366      6.595891105e-05      1.290831392e-12          3.443477615          3.080804366           2.72950017         0.7930405334         0.6178358927         0.0134627902       0.004028559622      2.742846747e-05           2.46318133          2.355696089          1.596518424         0.9738780412         0.1487484773        0.03032770319      0.0009491993794      0.0008084096055 
15 1          2.314001764           4.74093415          2.026034002          4.212187942         0.6640149375          1.695377633      5.427298239e-05       0.001199759347      5.471336228e-22      1.744513233e-16       5.49886043e-43      4.379294379e-32           0.53977877         0.4911284514         0.4152019184          0.137594318        0.05888909829      0.0006328773186      8.082047064e-05      1.301396838e-09           3.95734453          3.568683974          3.082017257         0.9744176378         0.6270720144        0.01928867325       0.004910270895      1.137449571e-07          2.737145171          2.651742233          1.696356234           1.17285497         0.1141246041        0.04670054788      0.0002636826247       0.006877327297 
16 1          2.253299644          4.880528686          1.976756311           4.34049176          0.650613744          1.768659738      5.482643826e-05       0.001592133068      5.605551525e-22      6.265051384e-16      5.505270678e-43      5.541297343e-31         0.5645497564         0.5144061605         0.4367760618         0.1410919301        0.04755928372      0.0006704270606      0.0001066218665      1.416680107e-16          4.001753304          3.606301347          3.115930956         0.9877212688         0.6680478975         0.0256943832       0.004399372331      7.290178866e-06          3.027669842          2.927324607          1.891790512          1.281720471         0.1453203503        0.06033773209      0.0004399201085       0.007288205918 
17 1          2.280527521          5.067938452          2.004788799          4.503352799         0.6852187081          1.807232811      0.0001080211783         0.0015002112      3.889900657e-20      2.924488334e-16      2.664711296e-39      7.347510941e-32         0.5530819859         0.5075684703         0.4176777748         0.1499461367        0.04479058177       0.001390903085      0.0002094598862      1.522924486e-13          4.243906224          3.839119377          3.273752895          1.081622396         0.6581351631        0.02379537476         0.0062017385      1.368753898e-05          3.261233796          3.140590491          2.076012577          1.335711676         0.1477359504        0.05885933885      0.0003804098091        0.00603618833 
18 1          2.213039839          5.096937969          1.938103889          4.543984057         0.6543597013          1.877390858      0.0001091391514        0.00216561539      3.894156846e-20      1.312299317e-15      2.664717995e-39      1.139753302e-30         0.4786928151         0.4365003119         0.3627012003         0.1284778216        0.05990187936      0.0003053247185      3.136694543e-05      1.757100084e-07          4.171800347          3.779985058          3.207665539          1.075412977         0.6183908596        0.02479254913       0.004935845378      4.743466203e-06          3.462218817           3.34072562          2.179206788          1.445271377         0.1546010177        0.05957069374      0.0004080342849      0.0002091772062 
19 2          2.534719558          3.405106455          2.249509523          2.919979652         0.8655257719         0.8225527081       0.000330587943      7.660100296e-05      2.291218514e-18      1.904825175e-20      7.005777314e-36      6.460451997e-40         0.7839337605         0.7319561805         0.5467516569         0.2649338542        0.07730062878       0.002436921092       0.002737572742      2.046568543e-08          3.276408024          2.902449328          2.662932132         0.6783277635         0.6129927936        0.00246589745         0.0302542209      1.346490772e-06         0.9163972347         0.8472189731         0.6755930149         0.2663586557        0.06550694875      0.0009571339789      8.059910445e-06       2.52185492e-07 
20 2          2.306864835          3.123375757          2.066958915          2.664642693         0.8838563832         0.6985946341      0.0007692571255      6.950337386e-06      6.257756541e-17      1.684086355e-26      5.286931988e-33      5.990499711e-52          1.032799483         0.9502727737         0.7603249497         0.3026985728          0.114214316        0.00138319605       0.001527535679      3.282881972e-18          3.074257901          2.718764485          2.504184659         0.6302193934         0.6137413732       0.003035503968        0.01412402713      1.762030122e-06         0.8304753973          0.754343966          0.641754388         0.2084336685        0.09189753922      0.0002864496401      0.0005340614073       1.20855438e-16 
21 2          2.513572831           3.47800133           2.18776202          3.000057221         0.7643629926         0.8475397757      0.0004368391317      1.426955025e-05      1.666305663e-17      6.474790534e-25      4.295336214e-34      8.388465364e-49         0.7259949261         0.6623762399         0.5289591272         0.2201578755         0.1370136267       0.001026368707       0.004453241655      3.124093726e-13           3.14601556          2.781287236          2.573834043          0.632202072         0.6111170347        0.00322541884        0.01539522573      1.567018039e-07           1.01677772         0.9343450986          0.764546324         0.2786565069        0.07749754699       0.000407643597      0.0002721085853      7.974470847e-16 
22 2          2.146450247          2.982250834          1.908068205          2.541403581         0.7548316644         0.6537816006      0.0005621845711      5.910538011e-06       1.01524975e-16      1.034881678e-26      1.623902726e-32      2.293713516e-52         0.7846652462         0.7238173177         0.5757218431          0.231707711        0.07706412833      0.0003411172141      0.0002214012517      2.440753455e-25          2.665134207          2.353967828          2.182171017         0.5331327631         0.5316407684       0.001400542029       0.008498904499       7.38009104e-14         0.7297741747         0.6619700689         0.5666835302         0.1800617135        0.08312659168      0.0002316151049      2.402009096e-06      3.769829499e-17 
23 2          2.614840391          3.539580209          2.311484521           3.04471262         0.8964174081         0.8321158891      0.0006278491602      7.362919777e-06      5.272530521e-17      3.086982009e-26      4.080417202e-33      2.024908564e-51         0.9758109219         0.8971239384         0.7038282039         0.3036922076         0.1518745709       0.001459552967       0.003713241655      5.905674788e-13          3.567720736          3.159175317          2.912965384         0.7232430276         0.6708560743       0.002446760476        0.01043214677      3.164863607e-08          1.087362208         0.9969612356         0.8234091056         0.2913628952        0.08719782566       0.000211902582      1.398553163e-05      3.272863943e-15 
24 2          2.309251928           3.04505684          2.077200188          2.605907834         0.8930581913         0.6989630449      0.0007535973808       5.65756896e-06      4.162487569e-17      1.650733892e-27      1.723881069e-33      4.019733607e-54          1.385644692          1.259819994          1.077784583         0.3388994981         0.1236445619      3.519961061e-05      1.783443289e-06      1.732529812e-30           2.90967234          2.592987528          2.309723965         0.6654214432         0.5715697142       0.003502103849         0.0200318615      4.776929999e-16         0.7959712202         0.7188157187         0.6268508287         0.1864369075        0.09363995656      0.0002102693073      5.537356292e-06      2.413916997e-17 
25 2          2.849315564          3.624848667          2.521058215          3.103942811         0.9566639521         0.8566360586      0.0003189012742      2.701036379e-05      7.909928048e-19      4.346079818e-23      9.275860428e-37      3.665215041e-45          1.027477848         0.9457881498         0.7460385779         0.3148857223         0.1387412987       0.004743066327       0.002560810727      4.043434754e-05          3.645939298          3.223709249          2.976246667         0.7404219288         0.6976220459       0.003506676283        0.03034181005      2.701448423e-06         0.9937077092         0.9145342219         0.7402595145         0.2805305426        0.08498249147      0.0004015300115      8.110283368e-05      4.019463737e-08 
26 2          2.475043911          3.231262803          2.217371833          2.762799439         0.9604049173         0.7523837267       0.001239730771      1.825817578e-05      8.208263136e-16      5.860831409e-24       9.73711285e-31      6.860866761e-47          1.350375247           1.23781077          1.010317484         0.3761308906         0.1466421098      0.0001926877842      0.0001428926497      3.672228488e-21          3.335795479          2.969383741          2.662441823          0.747308168          0.647045405       0.009238220803        0.02803222204      3.784417506e-08          0.888483529         0.8079691655         0.6870088264         0.2222786613        0.09037561758      0.0004132823574      2.688574237e-05      1.297680874e-11 
27 2           2.27380701          3.151308848          1.973959312          2.696212848          0.650658244         0.7098116966      9.296951855e-05      7.806720575e-06      6.404241417e-21      7.925537092e-26      7.178514391e-41      1.321667342e-50         0.6542800957         0.5912215866         0.4984627733         0.1730880585         0.1154179485      0.0004430989098       0.003432852782       3.24685486e-20          2.694515634          2.362999919          2.243322764         0.4972834199         0.5779983116       0.001681216961         0.0161436253      6.238313252e-09         0.8384986904         0.7653417889         0.6430133099         0.2157240755         0.0748524302      0.0002116872025      3.314725731e-05      1.836844921e-15 
28 2          2.293713782          2.902563435          2.046228172          2.453177002         0.8455819083         0.5917530743      0.0007459097944      5.190840685e-06      2.867824333e-16      8.627514725e-27      1.281132423e-31      1.510906792e-52         0.9708581873         0.8958105321         0.7045974598         0.2955921627          0.114616946      0.0003382767215      0.0003525264349      6.356386258e-18           2.61792056          2.303007685          2.148822145         0.5186307248         0.5634965107       0.003864761902        0.03467361852      7.077081794e-07         0.6322036555         0.5698151497         0.5003337505         0.1452553823         0.0751860071      0.0001852003465      0.0004414510626      8.345662436e-15 
29 2          2.642623841          3.626164487          2.317343614          3.143504193         0.8603174658         0.9221604362      0.0005483254601      1.572874029e-05       3.29613086e-17        1.1343145e-24      1.677760877e-33      2.619728049e-48          1.077175345         0.9748424795          0.817977609         0.2880581088         0.1880872834      0.0007774467833       0.003092871413      1.116068711e-16          3.542756053          3.156213874          2.834388556         0.7848200482         0.6451732344       0.007845221934        0.02543679671      8.271145878e-06          1.162365414          1.062554446         0.8854143406         0.3060180881         0.1082341965      0.0006355545269       9.04973519e-06      1.845683553e-13 
30 2          2.285255674          3.099261693          2.045878922          2.657871814         0.8584238894         0.7395042599      0.0006625217833      1.875407579e-05      4.371988035e-17       5.87710683e-24       2.26387169e-33      6.860948867e-47          1.235548217           1.12730449         0.9449199557         0.3205827463         0.1232436045      6.239830574e-05      3.867869857e-06      2.239785801e-28          2.860149954           2.54898726          2.268582415         0.6564846995         0.5564494933       0.005816684935        0.02909433194      1.085215814e-11         0.8126091681            0.7380717         0.6325317676         0.1986313105        0.07859877657      0.0005184487336      2.084121797e-05      2.417420505e-16 
31 2          2.699611416          3.423229877          2.379208381          2.931886326         0.9403085659         0.7939215978       0.000944903909       2.47662547e-05      2.274635501e-16      4.345177156e-23      7.469109968e-32      3.665214625e-45         0.8641077945         0.8030678846         0.5936872908         0.3051329301         0.1472887796       0.006983492876       0.004964011017      6.333061134e-16           3.30679638          2.929928599          2.683694593         0.6895166446         0.6433819131       0.005685460341        0.01675781059      1.552289257e-05          0.873577075         0.8065415939         0.6459927848         0.2518641584        0.06568924646      0.0003621069269      1.358189797e-05      7.029960176e-13 
32 2          2.539808285          3.035456596          2.270452512          2.573727185         0.9457203113         0.6353863466       0.001096709312      7.627013951e-06      1.429876064e-15      3.245274021e-26      3.086263726e-30      1.352839229e-51          1.274898676          1.172200451         0.9472054142         0.3628558069         0.1268178978      0.0004092931811       0.000260963241      1.185658324e-14          2.882925803          2.549633814          2.331476304         0.6108909174         0.6142772713       0.003090587438        0.02393595096      1.734721613e-09         0.6668846832         0.6046211152         0.5215259533         0.1601291292        0.06693318288      8.323985271e-05      3.264538375e-06      7.796398783e-16 
33 2          2.653275015          3.560712869          2.353778937          3.063930745         0.9697594221         0.8402001768       0.001264341624      1.254507294e-05       1.57150079e-15      1.055874724e-24       3.62357265e-30      2.285411669e-48          1.038357249         0.9671878612         0.7234112716         0.3523607025         0.1295259924       0.002510955479       0.001684743438      2.031111314e-20          3.619097883          3.216267633          2.914702958         0.7791580299         0.6706418275       0.003484050148         0.0220525674       5.60541221e-07          1.095565501          1.004071344         0.8321640185         0.2907231983        0.08427014599      0.0003785600111      3.103623772e-06      2.091420821e-14 
34 2          2.387417482          2.900370125          2.148975313          2.465399287         0.9309999963          0.612740084      0.0008822198826      5.368224119e-06      6.238171155e-17      2.050836767e-26      3.710779838e-33      9.107749967e-52          1.203334476          1.114391775         0.8731831773         0.3656962508         0.1085818538      0.0002394012612      0.0003566477688      6.952584126e-18          2.868818611          2.530361392          2.345557057         0.5791040498          0.619237288       0.004260350765        0.01301692715      1.603962293e-11         0.6520368347         0.5919403255         0.5074199271         0.1593311583        0.06591144592      3.983644787e-05      6.651411439e-06      2.071010668e-19 
35 2           2.29955164          3.298367388          1.993765123          2.837454786         0.6803226593           0.85406612      0.0004086683283      0.0005243756379      1.100572054e-17      2.286648041e-16      1.838042088e-34      8.182543279e-32         0.7429707009         0.6609342318         0.5827695086          0.178065553         0.1765159095      0.0002897827417       0.001504292716      1.122383851e-21          2.872417886          2.548092596          2.318469079         0.6128427076         0.5698021426       0.003466302807        0.01306685891      1.369123077e-09         0.9601653399         0.8837810586         0.7138328547          0.272996022        0.08885539255       0.002272066106      8.585305225e-06      2.165083551e-10 
36 2          2.434611423           3.18262532          2.180867192          2.705361086         0.9382323384         0.6791382668       0.001066748913      5.453916348e-06      2.021599863e-16      2.683924587e-26      3.605843723e-32      1.559639638e-51           1.14799157          1.057727128         0.8400558753         0.3417008784         0.1287345285      0.0004980651401      0.0005792884066      1.151702747e-19          2.864805678          2.546136869          2.296524777         0.6300447407         0.5628734526       0.004930678219        0.01727506078      1.727484056e-08         0.7776905012         0.7043271243         0.6069057003         0.1882372079        0.08924041321      4.304954553e-05      4.888366639e-06      7.637501392e-15 
37 2          2.636275546          3.262121526          2.312760337          2.790168969         0.8215840058         0.7231571825      0.0001987006991      7.158683878e-06      5.602381101e-20      2.596308699e-26      3.486687449e-39      9.779144359e-52         0.8797718624         0.8055987348         0.6430822802         0.2638573371         0.1321033944       0.001198786745       0.009866203564      8.014565853e-11          3.139739656          2.759478417          2.604060212          0.590752139         0.6477811209       0.001781574862        0.01788734004      1.504637054e-08         0.8332598523         0.7645646764         0.6309884421         0.2232464788        0.06179582174      0.0003163035296      2.517182748e-06      1.488191384e-14 
38 2          2.056507513          2.586489972          1.851300829          2.172175105         0.8119393737         0.4972833704      0.0006409029305       3.16762897e-06      5.933486054e-17      2.039931638e-27       5.35517602e-33      9.325064818e-54           1.01744395         0.9294877466         0.7773040958         0.2648724228        0.09112776118      2.664847099e-05      0.0001114151582      1.907072525e-27          2.083040027          1.835385293          1.691166265         0.4340304978         0.4851594567       0.001792947853       0.008858629445      2.575612875e-13           0.51108048         0.4593179853          0.408624564         0.1126696172        0.06160911699      1.475591977e-05      1.127665784e-05      2.840943044e-20 