ITEM: TIMESTEP
0
ITEM: NUMBER OF ENTRIES
4770
ITEM: BOX BOUNDS xy xz yz pp pp pp
-0.026733 19.1744 2.95065e-05
0 11.54 -0.026733
0 30 1.98508e-05
ITEM: ENTRIES c_2[1] c_2[2] c_2[3] c_2[4] c_2[5] c_2[6] c_2[7] c_2[8] c_2[9] c_2[10] c_2[11] c_2[12] c_2[13] c_2[14] c_2[15] c_2[16] c_2[17] c_2[18] c_2[19] c_2[20] c_2[21] c_2[22] c_2[23] c_2[24] c_2[25] c_2[26] c_2[27] c_2[28] c_2[29] c_2[30] c_2[31] c_2[32] c_2[33] c_2[34] c_2[35] c_2[36] c_2[37] c_2[38] c_2[39] 
                   0                   88        -0.4448567435                    0         0.4759818632                    0        0.09099519079                    0        0.02357023085                    0      5.722648898e-10                    0      2.200866261e-46                    0      1.951224603e-92                    0                    0                    0                    0                    0                    0                    0                    0         0.0889877694        0.07645137718        0.07666247032        0.01362117035        0.02783569262      9.837433416e-06     -4.222248389e-05     -2.109832886e-29         0.1589687866         0.1423115278         0.1297202637        0.03208497764        0.01632727725       2.27945305e-07      9.548080982e-08     -1.496773929e-42 
                   1                   53           7.61176575                    0         0.7046745567                    0          0.134715208                    0        0.03489490517                    0      8.472182212e-10                    0      3.258305782e-46                    0      2.888720009e-92                    0                    0                    0                    0                    0                    0                    0                    0        0.09609426028        0.08482365621        0.07888622233        0.01900625414        0.01925706704      2.488973887e-05      3.081884636e-05      2.056143256e-29         0.2478597867         0.2178704917         0.2084410961        0.04322618418        0.04466391286      5.954412572e-07     -3.895765211e-08      2.452499401e-42 
                   1                    2          2.741043903                    0         0.2284959696                    0        0.04368240883                    0        0.01131493271                    0      2.747168137e-10                    0        1.0565299e-46                    0      9.366889624e-93                    0                    0                    0                    0                    0                    0                    0                    0        0.05122126154        0.04238039787        0.04626670479       0.005472539359         0.0234173607      6.580736568e-06      3.688753801e-05     -7.074139917e-31        0.07707060511        0.06991140035        0.06110746142        0.01752604758       0.004662160177      7.114299962e-09      2.167639416e-07     -2.320946092e-42 
                   0                   25          2.931829901                    0        -0.1100605426                    0       -0.01629775474                    0      -0.001849604869                    0     -4.256813358e-14                    0     -1.308287636e-63                    0    -5.135516749e-126                    0                    0                    0                    0                    0                    0                    0                    0       -0.01104832456      -0.008801885691       -0.00995583949      -0.001205002449      -0.006873817074      -7.96836887e-09     -0.0002587328372      9.460887282e-50       -0.02001709404       -0.01719005846       -0.01717523227      -0.003129432519      -0.006345840813      4.640791363e-08      1.244143642e-05      1.144882376e-38 
                   1                   26          6.315241468                    0         0.6250764104                    0        0.09256125569                    0        0.01050462177                    0      2.417609027e-13                    0      7.430271737e-63                    0     2.916658685e-125                    0                    0                    0                    0                    0                    0                    0                    0        0.08848464864        0.07353001213        0.07997702227       0.009309871705        0.03623504665      9.547326483e-09      8.055717929e-05      4.631722354e-50        0.09723483629         0.0810842738        0.08639055541        0.01193752683        0.04125404393      2.063532399e-06        0.00020196525      2.794172848e-39 
                   1                    2          2.161425896                    0         0.2226139899                    0        0.03296465855                    0       0.003741103849                    0      8.610044827e-14                    0      2.646208383e-63                    0     1.038735451e-125                    0                    0                    0                    0                    0                    0                    0                    0        0.04123764721        0.03234326337        0.03887020045       0.002589213987        0.02576570839      2.584832383e-09      0.0008407555063     -8.110310037e-51        0.03169640449        0.02828497984        0.02640636808       0.005813651311       0.004252314562      7.515560202e-07     -0.0001971167028      5.751540473e-39 
                   0                   81         -0.417075128                    0         0.5803374052                    0         0.2228398797                    0         0.2398895965                    0       0.001576716249                    0      4.111955433e-16                    0      2.175393874e-32                    0                    0                    0                    0                    0                    0                    0                    0         0.2117813529         0.2221338328        0.09405311561         0.1364082573       -0.01643375799        0.01790201498     -8.958123254e-05      2.855406942e-07         0.7052476461         0.7011869219         0.3989236284          0.349648578        0.01011320418        0.03512767058      -3.55775535e-06      0.0007634512536 
                   1                   45          10.88698511                    0        0.09918700165                    0        0.03808615354                    0        0.04100016574                    0      0.0002694807465                    0      7.027851844e-17                    0      3.718023237e-33                    0                    0                    0                    0                    0                    0                    0                    0       -0.01760124462       -0.01936473275       -0.01186793581      -0.004019887975        0.03575406071        0.00870835747      9.540709738e-06     -6.673720908e-07         0.1032287156           0.11884015        0.02036963718        0.09239013982       -0.03782827166       0.003763992401      2.062700905e-05     -1.876537136e-05 
                   1                    2          2.775569239                    0         0.2736128788                    0         0.1050627798                    0          0.113101245                    0      0.0007433776763                    0      1.938672147e-16                    0      1.025637457e-32                    0                    0                    0                    0                    0                    0                    0                    0         0.1546816865         0.1383566309         0.1137866161        0.04815225443        0.06625812958        0.01089529467        0.00018423314      3.545823456e-07          0.337540221         0.3336365161         0.1881458522         0.1704445123        0.01982022381        0.01223860402     -5.199487619e-07      -0.000805379781 
                   0                   29          2.609065877                    0        -0.1303246453                    0       -0.05068108639                    0       -0.05545019511                    0     -0.0004214355037                    0     -2.084059621e-16                    0     -2.452780543e-32                    0                    0                    0                    0                    0                    0                    0                    0        0.03107993113        0.01555507873        0.05696960164       -0.02957204565        0.01798220707      -0.001576768784     -7.660820261e-12     -1.135390119e-14        -0.1951304473         -0.185863205        -0.1351486459       -0.06895763036       -0.00580933648       -0.01441156158     -1.592575406e-05       0.001257313225 
                   1                   30          9.540609018                    0         0.4141302119                    0         0.1610483496                    0         0.1762030581                    0       0.001339187795                    0      6.622477661e-16                    0      7.794155307e-32                    0                    0                    0                    0                    0                    0                    0                    0         0.1352968417          0.150751751        0.03941285053         0.1074755943       -0.04521962373      0.0009585373276     -4.255380402e-10     -5.385751064e-15         0.4952188806         0.4984033778         0.2735918086         0.2547111721       -0.01655604239        0.03462554416     -0.0003759337437      -0.002151089161 
                   1                    2          1.931000197                    0         0.4704396648                    0         0.1829461591                    0         0.2001614594                    0       0.001521277703                    0      7.522938636e-16                    0      8.853929767e-32                    0                    0                    0                    0                    0                    0                    0                    0         0.4466923323         0.3923954514         0.3780326699        0.07627343341        0.07774734323       0.001945054912      3.944583645e-10      3.245383927e-15         0.5266345174         0.5398444238         0.2519541987         0.3186394049        0.02498426936        0.04273098392      0.0003332389671       0.004694355435 
                   0                   28          5.983303765                    0        -0.4919967602                    0       -0.07285384358                    0      -0.008267657546                    0     -1.902009101e-13                    0     -5.835491472e-63                    0    -2.285691866e-125                    0                    0                    0                    0                    0                    0                    0                    0        -0.0760521612       -0.06244148509       -0.06979593129      -0.006838352477       -0.03453895056     -6.848350373e-08      5.505320007e-05     -1.616329799e-34       -0.06993340862        -0.0604273286       -0.06011075883       -0.01080096883       -0.01841758285     -3.276290685e-06     -5.598525278e-07     -7.768482908e-35 
                   1                   29          8.002498946                    0         0.4138695975                    0        0.06128493794                    0       0.006954785839                    0      1.599977489e-13                    0      4.908838232e-63                    0      1.92273293e-125                    0                    0                    0                    0                    0                    0                    0                    0        0.05820389185         0.0469966762        0.05357953282       0.005065785673        0.03046343209      1.920720911e-07      0.0008019432172      1.220743604e-34        0.05971621415        0.05214081497        0.05037484524        0.01028169724        0.01365477429      2.412376833e-06     -7.345212752e-08     -7.755632621e-35 
                   1                    2           2.36174356                    0         0.1975339351                    0         0.0292504089                    0       0.003319418056                    0      7.636459684e-14                    0      2.342917042e-63                    0     9.176924429e-126                    0                    0                    0                    0                    0                    0                    0                    0        0.03852333099        0.02938339851        0.03684698003       0.001833465787        0.02735807748       7.36022627e-08       0.001924293649      5.997826834e-35        0.02549505328        0.02299194767        0.02046694513       0.005530695797       0.002181331354       1.21383458e-06     -3.460835705e-07      1.088836175e-34 
                   0                  135         -3.377662982                    0         0.1500787166                    0         0.0164290095                    0      0.0005448755115                    0       5.50425265e-19                    0      1.358687454e-86                    0     1.718468703e-171                    0                    0                    0                    0                    0                    0                    0                    0       0.004347456314       0.003382335809       0.004163423249      0.0002007076801       0.002845661515      4.578385227e-11      8.588769647e-05      6.734976181e-71       0.007478559565       0.006133608339       0.006865278256      0.0006710294732         0.0034552826      8.112363657e-09      1.576386855e-05      3.497573236e-43 
                   1                   46          13.29129565                    0       -0.05478421521                    0      -0.005997188758                    0     -0.0001988994706                    0     -2.009253334e-19                    0      -4.95970565e-87                    0    -6.273038666e-172                    0                    0                    0                    0                    0                    0                    0                    0      -0.001600172313      -0.001252843249      -0.001526310181     -8.057328524e-05      -0.001012363182     -8.339308463e-12     -2.448221329e-05      6.639414275e-71      -0.002767883088      -0.002230350095      -0.002575452855     -0.0002105025121      -0.001469487723     -2.450287739e-09     -1.552436886e-05     -2.573626617e-43 
                   1                    2          1.530137234                    0        0.06660113319                    0       0.007290778296                    0      0.0002418019512                    0      2.442647912e-19                    0      6.029510787e-87                    0     7.626128841e-172                    0                    0                    0                    0                    0                    0                    0                    0       0.002094749075       0.001600699117       0.002021120965      8.030401579e-05       0.001488565093      1.587938888e-11      8.344996445e-05     -1.833480553e-71       0.003374880152       0.002773842155       0.003091512031      0.0003100481471       0.001530108979      2.500726926e-09      6.490620725e-06      2.893937352e-43 
                   0                  102          2.999145438                    0        -0.2206359678                    0       -0.08719455286                    0       -0.09734267296                    0     -0.0008864429928                    0     -9.721237479e-16                    0     -3.095396205e-31                    0                    0                    0                    0                    0                    0                    0                    0      -0.005311632505       -0.02079711668        0.03560898934       -0.04790318411        0.02095244172      -0.005217555538     -1.652744798e-08     -1.537212515e-08        -0.2951228936        -0.2954725596        -0.1621622273        -0.1496800378        0.01265881494      -0.009201001476      4.898079978e-06       0.003932791008 
                   1                   22          13.09518066                    0        -0.4163077446                    0        -0.1645233459                    0        -0.1836713616                    0      -0.001672588049                    0     -1.834255081e-15                    0     -5.840559115e-31                    0                    0                    0                    0                    0                    0                    0                    0        -0.1906217672        -0.2027022772       -0.07642057833        -0.1290787224         0.0333016695      -0.004313852403      6.076838918e-08      2.158500669e-08        -0.5011510139        -0.5020004202        -0.2718773277        -0.2614567294      -0.006550845169       -0.01797346543      3.413861054e-06      -0.006874673223 
                   1                    2          2.154519184                    0         0.4161438963                    0         0.1644585936                    0         0.1835990732                    0        0.00167192976                    0      1.833533164e-15                    0      5.838260416e-31                    0                    0                    0                    0                    0                    0                    0                    0         0.3239426967         0.2928376724         0.2471410311        0.08760872113        0.07029681009       0.007825731422      5.455980426e-08      2.195245174e-08         0.5288309238         0.5271525221         0.2904178961         0.2714626463        0.01329821245        0.01737653261      6.006289615e-06       0.004567136812 
                   0                  117      -0.001114823263                    0         0.3893169563                    0        0.07406795473                    0        0.01891900239                    0       4.07404833e-10                    0      9.285974121e-47                    0      4.283053916e-93                    0                    0                    0                    0                    0                    0                    0                    0        0.04738198766        0.04183576337        0.03860265257       0.009657000978       0.009906612114     -3.054390927e-07      1.238369818e-05     -4.598797499e-46         0.1317146747         0.1156260633         0.1097836403        0.02418484298        0.02815495733       5.22922811e-05      1.005073349e-06      7.991077176e-17 
                   1                   49          15.34227254                    0        -0.7645848605                    0        -0.1454630627                    0       -0.03715528586                    0     -8.001078872e-10                    0     -1.823685075e-46                    0     -8.411547782e-93                    0                    0                    0                    0                    0                    0                    0                    0       -0.07919085432       -0.06902154658        -0.0668589089       -0.01357374653       -0.01929330151     -1.132510997e-06      4.659957415e-06     -3.166880224e-46        -0.2450475848        -0.2192016952        -0.1974452907       -0.05242271756       -0.03509760909     -8.956339057e-05      7.192588408e-07     -1.572867631e-16 
                   1                    2          2.944498786                    0         0.1887054418                    0        0.03590140602                    0       0.009170211178                    0      1.974727988e-10                    0       4.50099545e-47                    0      2.076034882e-93                    0                    0                    0                    0                    0                    0                    0                    0        0.03012318671        0.02550919071        0.02642671533       0.004061270975        0.01089255135      -2.75818806e-08      5.035021423e-06     -1.380292712e-46        0.06549925992        0.05456630956        0.05710895455       0.009321069289        0.03303858506      1.682494087e-05      6.795293946e-06      3.756133899e-17 
                   0                  101          6.069478776                    0        -0.8557957269                    0        -0.1848512315                    0       -0.06680742887                    0     -2.872114584e-08                    0     -3.132042835e-39                    0     -1.798903501e-78                    0                    0                    0                    0                    0                    0                    0                    0        -0.2246113811        -0.2000546353        -0.1830742746       -0.04576574808       -0.03368498496     -3.415325612e-05      1.274561721e-06      -1.43082642e-29        -0.3355900035        -0.3087571195        -0.2515723616       -0.09293618349       -0.02534897548     -0.0002924232471      5.273694163e-08     -8.755926894e-19 
                   1                   21          11.59716779                    0        -0.0613775516                    0       -0.01325750485                    0      -0.004791419592                    0     -2.059876622e-09                    0     -2.246296806e-40                    0     -1.290171112e-79                    0                    0                    0                    0                    0                    0                    0                    0        -0.0312559262       -0.02496362868       -0.02844673668       -0.00315450103       -0.02259757083      8.720271822e-06     -4.173762685e-07      6.503920646e-29       -0.01748624128       -0.01790411428      -0.009859948979        -0.0083487096       0.005952485873     -1.537493597e-05      1.454896522e-07     -2.546270451e-18 
                   1                    2           2.52959429                    0         0.3004659751                    0        0.06490042399                    0        0.02345578346                    0      1.008386326e-08                    0      1.099645949e-39                    0      6.315868115e-79                    0                    0                    0                    0                    0                    0                    0                    0          0.120538485         0.1020466255         0.1075977348         0.0142128488         0.0395189394       1.08654006e-05      6.577881512e-06     -1.455114963e-30         0.1093814235         0.1038458671        0.07450958532        0.03863289603       0.001035668091      0.0001025659473      3.369949057e-07      -6.15004044e-19 
                   0                  104          5.675184868                    0        -0.2467896506                    0       -0.03049449184                    0      -0.001719794659                    0     -1.297709915e-16                    0     -1.194654107e-76                    0    -3.577701533e-152                    0                    0                    0                    0                    0                    0                    0                    0       -0.01888594769       -0.01470920495       -0.01810769669     -0.0008482705022       -0.01223136843     -2.535497168e-08     -0.0003994264596     -3.985046197e-39       -0.02135206518        -0.0182938372       -0.01849890522      -0.003131836846      -0.006475425152     -3.018997247e-08      -2.85690729e-06     -5.035517997e-54 
                   1                   25          15.88499746                    0         -0.311730929                    0       -0.03851894214                    0      -0.002172348741                    0     -1.639194822e-16                    0     -1.509020471e-76                    0    -4.519153134e-152                    0                    0                    0                    0                    0                    0                    0                    0       -0.02315544794       -0.01797334077       -0.02214192413      -0.001106483949       -0.01511830125     -6.254243468e-08     -0.0008284747884     -8.837998261e-40       -0.02702627143       -0.02314832725       -0.02347982834      -0.003891872252      -0.008119002226     -4.364527418e-08     -2.888365276e-06     -1.146774238e-54 
                   1                    2          3.017722513                    0        0.06282415301                    0       0.007762848307                    0      0.0004378005421                    0      3.303522902e-17                    0      3.041178277e-77                    0     9.107597018e-153                    0                    0                    0                    0                    0                    0                    0                    0       0.006075159507       0.004343895923       0.005999294285      8.289910471e-05       0.005380166307      1.219292951e-08       0.000981921043      2.340629133e-40       0.004964942696       0.004514161537       0.003970121507        0.00109193508      0.0002178118287     -2.749818839e-09     -2.528244599e-06     -9.570345327e-54 
                   0                   22         0.8606126075                    0        0.09502279911                    0        0.01216465429                    0      0.0007931422742                    0       1.93928231e-16                    0      2.423042633e-74                    0     3.276483595e-147                    0                    0                    0                    0                    0                    0                    0                    0        0.01039176007       0.007627596486       0.009858763568      0.0005865764958       0.008063398609     -3.614695764e-09       0.002518136591     -1.236297262e-50       0.008614302282        0.00753824962       0.007338003041        0.00139944985       0.001643203438      6.310791531e-08     -4.690414005e-07      2.323936144e-43 
                   1                   23          5.853262727                    0         0.4349482551                    0        0.05568132289                    0       0.003630453443                    0      8.876685013e-16                    0      1.109100316e-73                    0     1.499746204e-146                    0                    0                    0                    0                    0                    0                    0                    0        0.03789446065        0.02958346391         0.0355272173       0.002597627849        0.02408225901       5.71967515e-08       0.002004659706      5.437615207e-51        0.04408963626        0.03788221318        0.03828264136       0.006372781028        0.01241776026      2.380696397e-07        7.1520271e-07      5.764727796e-44 
                   1                    2          5.522557303                    0          -0.12617077                    0       -0.01615216363                    0      -0.001053130116                    0     -2.574968793e-16                    0     -3.217303191e-74                    0    -4.350497587e-147                    0                    0                    0                    0                    0                    0                    0                    0       -0.01230411192      -0.009149224669       -0.01172289365     -0.0006387121941      -0.009243614945     -1.544949349e-08      -0.002267161097     -6.234841077e-52       -0.01285371861       -0.01126571573       -0.01082169489      -0.002230977396      -0.002608897989     -4.097489307e-08      1.144100684e-07      1.022464286e-43 
                   0                    3          4.560976085        -0.3545876224                    0       -0.05553575012                    0      -0.007672120214                    0     -9.075534372e-13                    0      -3.20862852e-59                    0    -8.328961308e-118                    0       -0.07077608044       -0.05659789542       -0.06680775861      -0.004325745019       -0.03884229107     -1.155885338e-13     -0.0005302802381       -2.9151711e-61       -0.06248982811       -0.05485772386       -0.05166004644        -0.0119246944       -0.01420542137     -9.590685056e-07     -9.307179265e-06     -2.270054129e-42                    0                    0                    0                    0                    0                    0                    0                    0 
                   1                    4          6.764043958         0.6424762866                    0         0.1006250649                    0        0.01390109241                    0      1.644393446e-12                    0      5.813704727e-59                    0     1.509122089e-117                    0         0.1292468674         0.1036773731         0.1222088444       0.007668261854        0.07030917179       2.35271359e-13      0.0001286360731      2.744928505e-61         0.1118505256        0.09831247688        0.09211233091        0.02173839871        0.02530940022      1.469137127e-06      2.324372229e-05      -8.98087723e-43                    0                    0                    0                    0                    0                    0                    0                    0 
                   1                    1          4.347345744       -0.05759240324                    0      -0.009020160642                    0      -0.001246111858                    0     -1.474055501e-13                    0     -5.211479925e-60                    0    -1.352796511e-118                    0       -0.01094225228      -0.008906517772       -0.01023418921     -0.0007718548559      -0.005291199414     -4.728269812e-14      4.250264384e-06     -2.373744898e-62       -0.01081829059        -0.0094578268      -0.009719184752      -0.001193895289      -0.000860190013     -6.604192514e-07     -3.091223923e-06     -3.043374453e-42                    0                    0                    0                    0                    0                    0                    0                    0 