ITEM: TIMESTEP
0
ITEM: NUMBER OF ATOMS
54
ITEM: BOX BOUNDS xy xz yz pp pp pp
-2.6732977382222696e-02 1.9174382766165152e+01 2.9506541316800546e-05
0.0000000000000000e+00 1.1540010645371973e+01 -2.6732977382222696e-02
0.0000000000000000e+00 2.9999991154072013e+01 1.9850802815995338e-05
ITEM: ATOMS id type c_1[1] c_1[2] c_1[3] c_1[4] c_1[5] c_1[6] c_1[7] c_1[8] c_1[9] c_1[10] c_1[11] c_1[12] c_1[13] c_1[14] c_1[15] c_1[16] c_1[17] c_1[18] c_1[19] c_1[20] c_1[21] c_1[22] c_1[23] c_1[24] c_1[25] c_1[26] c_1[27] c_1[28] c_1[29] c_1[30] c_1[31] c_1[32] c_1[33] c_1[34] c_1[35] c_1[36] 
1 1          2.292708711           5.08839162          2.025671754          4.518465317         0.7576845756          1.819511101      0.0006549278042       0.001661397129      1.824824267e-16      2.221530574e-16      5.180324728e-32      3.150347514e-32         0.6103006607         0.5640004424         0.4527865402         0.1739808945        0.03616972953      0.0006897596795      0.0001983316958      3.869973146e-12          4.475426538          4.071523861          3.386252491          1.221048547         0.7049155299        0.05080555841       0.009355775072      8.411068631e-05          3.305961462          3.186407997          2.093833556          1.365208048         0.1499439256        0.06033831244      0.0002545358543       0.001318511652 
2 1          2.378470214          5.047917793          2.107737886          4.488957578         0.7814344501          1.831549589       0.000536337568       0.001678300137      1.816595918e-16      3.481460783e-16      5.180210184e-32      9.632501595e-32         0.6690320226          0.613684349         0.5046301381         0.1818544941        0.05893746718        0.00125316468      0.0001063729043      2.221412465e-10          4.649222932          4.227803362           3.52424428          1.260017545         0.7255133478        0.04772780642       0.007862322127      1.122230329e-05          3.291538355          3.181229933          2.064024535          1.383013147         0.1355815481        0.06270395928      9.508893744e-06      0.0008799103534 
3 1          2.354020444          4.986816407          2.078139326          4.436800697         0.7378044773           1.80540455      0.0003119927469       0.001392195225      1.670455459e-17        8.8564107e-17      4.524010789e-34      4.586357925e-33         0.6277696693         0.5677186731         0.4892930706         0.1533019467        0.08213337878       0.001144019537      0.0002324810243      2.584378357e-10          4.424732972          4.013914643          3.384531449          1.163510945          0.689578944        0.03971730179       0.003434833375      9.222183527e-07          3.226587274          3.112215092          2.038924593          1.336721322         0.1369152864        0.05717915994      0.0003200794201       0.001300639523 
4 1           2.14537827          4.902906668          1.890284792          4.341325874         0.7056391005          1.698339612      0.0006030784924       0.001157594711       3.44008328e-17      8.299085413e-17      9.597153032e-34      6.606799893e-33         0.5141731594         0.4771485558         0.3743842264         0.1545511682         0.0332016187      0.0001302019098      6.914876383e-05      1.030358182e-12          3.969751674          3.595484079            3.0358092          1.045783923         0.6727294695        0.04089119122       0.005810003772       1.40390595e-05          2.884693481          2.775739093          1.836343118           1.17887539         0.1337953015        0.04348444703      0.0001254032978       0.001018820924 
5 1          2.152899024          4.918010242          1.887510384          4.368189752         0.6455348348          1.754156949       0.000310744766       0.002072004888      1.769627862e-17       4.86848807e-15      5.073142243e-34      2.365896236e-29         0.4789322852         0.4337541829          0.372177079         0.1179595643        0.05914504923      6.782137483e-05      0.0001365799824      1.086893084e-10           3.85530977          3.490514227           2.96319825         0.9946516267         0.5983522769        0.02154823731       0.007238889441      1.562236152e-06          3.007078957          2.905727608           1.88363283          1.265051033         0.1229553653        0.04876340745       6.93063969e-05       0.001337154717 
6 1          2.222868762          4.981349901          1.951823405          4.438725908         0.6766972856          1.816056341      0.0001950136748       0.001671426208      8.239394063e-19      7.860971149e-16       1.14544735e-36      8.162685142e-31         0.5376438166           0.48442083         0.4235641325         0.1260306009        0.07258244394      0.0003906427907       7.34776291e-05      1.498130096e-08          4.150527529          3.759036793          3.184806338          1.078499049         0.6537830672        0.03040185004         0.0109637571      1.546545423e-06           3.22261931          3.115729846          2.017534308           1.35631704         0.1196911369        0.05370796018      2.612927942e-05      0.0008410940781 
7 1          2.215034028          4.752357283           1.93266659          4.218793854         0.6022599623          1.683313299       6.01725488e-05       0.001243896456      6.950709652e-21      1.760855257e-16      8.725345446e-41      2.406111185e-32         0.4636848842         0.4177286033         0.3662476647           0.10761827        0.06103330458      0.0004619105014      3.832266068e-05      3.380746119e-13          3.740963489          3.351262662          2.958118639         0.8710062323         0.6608256853        0.01806780184       0.005149415933      7.932818557e-07          2.752431843          2.659854141           1.72237358          1.159575139         0.1170220169        0.04496558889      0.0002280305047       0.002504335942 
8 1          2.162397555          4.931578722          1.892447875          4.393314627         0.6351034827          1.846042639      0.0001336598277        0.00242983431      3.101636467e-20      2.516090436e-15      1.115084082e-39      4.892957514e-30         0.4709023314           0.43389324         0.3511633712          0.132314297        0.03449388479      0.0003168739263      2.592053504e-05       1.27785361e-12          3.915394739          3.534875323          3.021483717         0.9994375403         0.6694267951        0.03392593883        0.01292787618      5.804179564e-06          3.270097259          3.172538793          2.011422356          1.420419767         0.1400394589        0.06385995154      0.0004935754911      0.0006420993687 
9 1           2.15919886          4.852628861           1.88986536          4.319123502         0.6296535142          1.773021705      0.0001190986948       0.001850142918      2.582593208e-20      3.621689615e-15      1.033536786e-39      1.935180809e-29         0.4801387727         0.4402841433         0.3630054769         0.1293635432        0.03990044979      0.0002778275544      3.623282169e-05      4.850211323e-13          3.872429968          3.488103749          3.013953297         0.9597956484         0.6761792698        0.03682894554       0.006101128014      6.602550317e-05          3.032994393          2.938002516          1.882581656          1.297446106         0.1259742648         0.0592417398      0.0001536373931       0.004542535212 
10 1           2.32832503          5.094984464          2.039704123           4.54188727         0.6585443825          1.868645286      5.311606931e-05       0.001779543552      1.760826899e-21      9.361399226e-16      5.706158581e-42      1.228523987e-30         0.5275082282         0.4777509908         0.4115539985         0.1280983354        0.06088448555      0.0005490517257      8.054315191e-05      4.592708313e-11          4.308080633          3.882180011          3.355982514          1.060776912         0.7100493508        0.02214361522       0.006749498878      2.163718062e-05          3.479956898           3.35725101          2.202573688          1.440581346         0.1518500977        0.06811549014      0.0003844409298        0.01064043292 
11 1          2.091471452          4.850240481          1.828564288          4.300721023         0.6088310946          1.707708532      0.0001818047368       0.001311316355      1.242731841e-18      2.280858914e-16      2.594514009e-36      5.502667077e-32         0.4478468459         0.4127385747         0.3341219752         0.1254951313        0.03152870828      8.138742013e-05      4.691589736e-05      7.175210967e-12          3.643959778          3.280748394          2.840189098         0.8960835765         0.6194516986         0.0223554332       0.006170652891      7.201276008e-06          2.852302333          2.752615135          1.791171772          1.194208924         0.1321800476        0.04403425336      8.391574999e-05       0.001043603709 
12 1          2.171678421          4.891167772          1.895009678          4.353034378         0.6074325704          1.786832034      0.0001758684896       0.001814653453      1.242731292e-18      1.064934378e-15      2.594514009e-36      1.281795913e-30         0.4568071733         0.4183289068         0.3475721887         0.1204148367        0.03622985752      5.712432365e-05      7.443849932e-05      6.125423764e-14          3.778251251          3.410566727          2.926333499          0.950174761           0.62417789        0.02352602481       0.003364896758      1.621687529e-05          3.093507179          2.994930515          1.924186564          1.318668035          0.129393576        0.05696240575      0.0006151178638        0.00618947731 
13 1          2.152324608          4.926330747          1.883290162          4.372265815         0.6360916422          1.736169199      0.0002956189297       0.001168594159      1.271275941e-17      2.157677901e-16      2.629950829e-34      7.049669814e-32         0.4548968376         0.4169259564         0.3408115647         0.1262318087        0.04840757078      0.0001196400884      0.0003149866232      1.634242129e-14          3.906295098          3.514742274          3.054487892         0.9514057229         0.6741361014        0.03453450687        0.00289499234      1.808400447e-05          3.015015576          2.899153319          1.922727157          1.228376851         0.1461213349        0.04504501287      0.0003558605843       0.001317815914 
14 1          2.318036484          5.133254047          2.036902487          4.577920774         0.7062786857          1.894734606      0.0002565151768       0.001662068817      5.807829351e-18      1.970294082e-16       5.54802629e-35      2.923886559e-32         0.5903722107          0.532326155         0.4615560052         0.1425232201        0.08492945311      0.0005046362515       0.000728485038      2.245197172e-09          4.462887579          4.048108506          3.411265115           1.17523411         0.6947484483        0.03565147736       0.005562218992      4.369216704e-07          3.566989605          3.440273023          2.257353716          1.474639344         0.1467163642        0.06479782244      4.654310941e-05       0.001460571064 
15 1          2.410700469          5.240288478          2.137235153          4.663640344         0.7962340436          1.930195181      0.0005006488843       0.002352218511      1.426232941e-17      2.302062109e-15      1.724464105e-34      5.444290341e-30         0.6922470862         0.6350828756         0.5208230187         0.1898723628         0.0645763793       0.001222473343      3.036104911e-05       1.36880274e-13          4.886851269          4.454927992          3.678840015          1.355691215         0.7604561675         0.0632370082       0.004590830514      1.573648938e-05          3.702827689          3.573023564          2.335936051           1.54241501         0.1753341382        0.07830282055      0.0007642143372       0.005514405526 
16 1          2.393806864           5.11399999          2.125599854          4.515288498         0.8259414345          1.731268124      0.0007320418834       0.001376499342      1.471738247e-16      2.762289147e-16      3.043379278e-32       7.30146449e-32         0.6826919144         0.6327399938         0.4972624745         0.2061633844        0.05495706664       0.003107632892      8.389760193e-05      1.087322191e-09          4.734157577          4.290994786           3.61621157           1.25048125         0.7633109423        0.04238226803        0.01289278435       6.02936433e-06          3.087714126          2.956694572          1.997237828          1.225245641          0.169466857        0.03941630612      0.0001222933746      0.0004082029321 
17 1          2.411093574          5.058214582          2.120756702          4.493548777         0.7343677143          1.813599279      0.0004753007286       0.001589357675      1.387193198e-16      6.101661254e-16      3.031682663e-32      5.182506436e-31         0.6157535872         0.5549583104         0.4823341756         0.1477375387        0.08968464478      0.0009088125678      0.0002233599669      1.081306286e-10          4.483834189          4.066132685          3.433036111          1.173800843         0.6908538133        0.03245803478       0.007144387024      1.580598382e-07          3.258987419          3.143682441          2.058907682          1.352581757         0.1490193589         0.0628535851       0.000852547969       0.003192406107 
18 1           2.14755261          4.922449004          1.873654934           4.36385926          0.611107547          1.726144276      0.0002885901639       0.001219650348      1.271275463e-17      5.787053184e-17      2.629950829e-34      1.785647417e-33         0.4471899629         0.4065477804         0.3435910644         0.1144362265        0.05349785656      0.0001505869457      6.484089453e-05      7.933494864e-16          3.751416188          3.379350832          2.922357255         0.9235507921         0.6227526375        0.02073415439       0.007456279793      6.520842922e-06           2.94016114          2.834141676          1.859890111          1.216533077         0.1370472135        0.05008533592      0.0006860902277       0.004196116531 
19 2          2.673617135           3.57745211          2.343736016          3.087049512           0.86527709         0.8611457262      0.0004836409124      1.154649536e-05      1.359153868e-17      5.115393789e-25      2.872050147e-34      5.381610555e-49         0.9244427117         0.8421859354         0.6754942494         0.2784230328         0.1773419749       0.001989810323        0.01053157066      6.511873815e-20          3.652419709          3.227746009          2.988535902         0.7332774846         0.7169384541       0.002165535945        0.01609212899       5.40698138e-08          1.180793264           1.08547458         0.8902522889         0.3206645799        0.07997146662      0.0002793001542      1.206140738e-06      9.635507362e-16 
20 2          2.499579604          3.028508177           2.24072506          2.568441732         0.9464339257         0.6143894358      0.0009325730977      1.197920267e-06      1.020612499e-16      9.541581162e-31      8.523905011e-33      1.817760553e-60           1.29364659          1.185139542         0.9660724092         0.3630162714         0.1518028114      0.0005131985208      0.0006822598502      5.334495222e-18          3.048785186          2.680042485          2.507467636         0.5982980568         0.6730492595       0.002600922467        0.02782173275      2.608327405e-08         0.7452732031          0.674975854         0.5855153303         0.1758822094        0.07312243089      5.466195212e-05      6.492185779e-07      2.694492401e-21 
21 2          2.630631393          3.474073655          2.330140952          2.985919439         0.9259570017         0.8055484796      0.0007753511717      5.300687226e-06      8.820995977e-17      1.307109974e-27      1.153468239e-32      2.147800987e-54          1.017554578         0.9362916352         0.7371140527         0.3140349734         0.1512183961       0.003345293566       0.001661556945      3.608908361e-12          3.497666379          3.100271386           2.83290232         0.7346350596         0.6686678365       0.003132842975        0.02984701296      8.045329866e-07          1.014090807         0.9300604026         0.7706514791         0.2684995048        0.07032047716      0.0002121193564      2.598531602e-06      1.156874809e-14 
22 2          2.506749824          3.330433663          2.250883683          2.848307037         0.9791756314          0.743927466       0.001212331769      4.450797293e-06      2.678149644e-16      4.614627926e-28      5.068458843e-32      4.202826907e-55           1.37214229          1.260573763          1.019969577         0.3897811495         0.1440139705      0.0002400533671      0.0003690162263      5.166402883e-19          3.398475941          3.012649757          2.733772218         0.7366126242          0.701666204       0.005145631255        0.02903470921      1.588460119e-09         0.9569220734         0.8672875487         0.7506668367         0.2270712437        0.09148932573      0.0001231961439       7.54291544e-06      7.413415158e-15 
23 2          2.644793284          3.402655384          2.335581661          2.915741374         0.9096290404         0.7641644475       0.001108505453      4.555708164e-06      3.823025429e-15       2.34269368e-27      2.202419548e-29       1.18956004e-53          1.017812404         0.9311220166         0.7477894757         0.3014162563         0.1636550142       0.002006620367       0.002905636412      6.803572733e-16          3.322576407          2.935403623          2.712774919         0.6743725433         0.6712566333       0.003318036519        0.02078645907      7.788692165e-07          0.957669993         0.8775730071         0.7288849644         0.2523087309        0.06976676273      0.0001285357742      1.650329645e-05      2.224494988e-15 
24 2          2.383703084          3.029757129          2.140005749          2.567590096         0.9347498245           0.60850704       0.001227194016      1.129672554e-06      1.071983532e-15      1.119272152e-30      1.636902455e-30      2.052212318e-60          1.091350545          1.007137106         0.7896717815         0.3354676063         0.1345264443       0.000818349385       0.001125879527      4.922056087e-19          2.899799598           2.55235198          2.381370143         0.5729352668         0.6263710828       0.002671638983        0.02269224945       6.97057758e-09         0.7263139672         0.6592946976         0.5676687983          0.174660602         0.0662638422      5.439078197e-05      1.035163263e-06      2.179915033e-18 
25 2          2.748141309          3.630685157          2.413511424          3.139300187         0.8951506628         0.8925534243      0.0004373020647       1.15379663e-05      4.251999765e-18      2.606502861e-25      2.571655092e-35      1.372526804e-49         0.9403855024          0.859798093         0.6802019608         0.2914274563         0.1730478373       0.002354869098       0.008519016682      1.425558361e-09          3.668565351          3.244953557          2.998321644         0.7405685488         0.6867778044       0.002666790536        0.03074741266      5.980338826e-07           1.12982843          1.046837743         0.8309745924         0.3302695815        0.06359484072       0.000242436615      2.941963811e-06      1.657738397e-13 
26 2          2.100375995          2.955410747          1.894240321          2.511257403         0.8444889564         0.6200326509      0.0007184808718      2.732412448e-06      2.995601071e-17      1.389129527e-28      7.165784658e-34      2.554020894e-56          1.084164367         0.9946085259         0.8225286566         0.2883127332        0.07644636495      9.695872726e-06      2.611654501e-05      4.446690636e-26          2.630518402          2.329601338          2.122064771         0.5630597458         0.5597600252       0.002431511964       0.009459715149      1.728594907e-14         0.7172030579         0.6495342304         0.5639381906         0.1686969495        0.06898933776      0.0001036398986      4.250152775e-06      3.611745327e-18 
27 2          2.515707148          3.438340145           2.21202891          2.950829182         0.8223587083          0.775660552      0.0004507079133      2.457692898e-06      4.751677897e-17         1.087586e-29      3.608316347e-33      2.079478106e-58         0.7991697259         0.7321693829          0.573994139         0.2518512832         0.1416086612       0.001238302468       0.008367406627      1.028014533e-13          3.205402237          2.818978595          2.651392117         0.6111988185         0.6564960856       0.001687693606        0.02465751115      2.006134999e-07         0.9679634042         0.8879109608          0.734507134         0.2575025549        0.06886478616      0.0001273919293      4.727322755e-06      2.306344558e-17 
28 2          2.169613312          2.844791696          1.967523939          2.408221416         0.9172132753         0.5698607071        0.00116578776      1.248911546e-06      2.656002556e-16      1.233895664e-30      7.414652777e-32      2.152772512e-60          1.233927834          1.133372742         0.9333313722          0.331228453        0.08336552231      1.278870704e-05      5.502881745e-06      1.087506715e-27          2.752342679          2.424425268          2.242997359         0.5638539938         0.6275859109         0.0022577982        0.02033016083      3.489543555e-15          0.674146707         0.6078830575         0.5362105635         0.1516733054        0.07111291514      2.207441085e-05      5.063165522e-07      1.346567036e-17 
29 2          2.420157041          3.465444265          2.108768525          2.985235909         0.7162599213         0.8137542008      0.0001146505136      4.040177496e-06      9.128526124e-21      1.395341358e-28      1.375439588e-40      2.398347653e-56         0.6648567346         0.6051683025         0.4917379926          0.193159559         0.1181037441      0.0008078846393       0.003809782626      2.333131265e-22          3.031914135          2.665764258          2.514270596          0.570772355         0.6098213099      0.0008584153215        0.02326452265      6.685975021e-09          1.001864859         0.9231383214         0.7497874324         0.2782932243        0.06466316876      0.0001577982706       3.50146629e-06      9.587391706e-19 
30 2           2.47862248          3.398766609          2.212792591          2.908211886         0.9021328349         0.7598763852      0.0008933922448      3.429132117e-06      7.273352705e-16      4.026315524e-29      8.132515112e-31      1.575341029e-57          1.130167538          1.037358543         0.8387041188         0.3231370842         0.1319031592      0.0005680826893      0.0001860100203      6.091610465e-18          3.280662479          2.902116775           2.66615495          0.679632856         0.6622654161       0.004223934525        0.02114514062      4.536377035e-08         0.9294112427         0.8483291777         0.7145315706         0.2369439946         0.0775395073      0.0001984347055      4.268451728e-06      4.173748434e-17 
31 2           2.62504806          3.373022202           2.31372688          2.900123939         0.8730544316          0.779894993      0.0004611353463      5.958943855e-06      6.347555102e-18      5.129709494e-27      5.806581324e-35      4.893272214e-53         0.9209629168         0.8460213129         0.6633650626         0.2880744089         0.1470086613       0.002038583476       0.008673201138      1.279070413e-12          3.393265202          2.990468794          2.792313017         0.6634278786         0.6941244246        0.00178229394        0.01684007025      7.226021853e-09         0.9942275436         0.9137199371         0.7508285602         0.2685186636        0.06584095991      0.0001839560068      1.612770248e-06      6.757649946e-15 
32 2          2.371774783          3.157974024          2.135164462          2.682582391         0.9513909258         0.6713150443       0.001351245085      1.143429937e-05      1.708615373e-15      1.949808882e-24      4.317797386e-30      7.725996447e-48          1.148589871          1.072465458         0.8143980145         0.3702921271        0.07937444334      0.0001816326082      0.0001390225746      1.043364081e-18          3.147887931          2.771265712          2.574313269          0.635793038         0.7137288926       0.004772488866        0.02070330793      7.848702283e-11         0.8955747527         0.8101103514         0.7043367303         0.2105657584        0.09479210092      7.080403501e-05       8.93767762e-06      8.623760608e-20 
33 2          2.540394373          3.458343988          2.231383471          2.969671186         0.8303551458         0.8003690489      0.0004113112132      2.426829435e-05      4.515775224e-18      8.665731022e-23      2.615815998e-35      1.443920229e-44         0.7116237725         0.6590703263         0.4928029668         0.2457847783         0.1163869062       0.002266490055       0.009864564093      2.487812386e-20          3.298609706          2.903191584          2.722791549         0.6359514424         0.6837862239       0.002023342401        0.01301092436      4.802501175e-08          1.050803841         0.9654700648         0.7917845945         0.2859047477        0.07759219533      0.0001271020414      8.996078894e-07      1.368192908e-11 
34 2          2.303617913          3.009557227          2.079564501          2.539237721         0.9295554109         0.5827396103       0.001063359129      1.667099037e-06       2.89745215e-16      1.529099224e-29      1.044005079e-31      4.135382654e-58          1.157792332          1.079323001         0.8327037694         0.3595216947        0.06155248328      0.0001378923438      8.321195169e-05      1.513531955e-17          2.818603965          2.472023367          2.318541303         0.5532451868         0.6695816487       0.002624918315        0.02362104555      1.329376029e-09         0.7269802442         0.6553257659         0.5771564894         0.1648307533        0.08193288289      1.233596872e-05      3.164611304e-06      6.227852582e-31 
35 2          2.552942791          3.412815769          2.251548861           2.92298404         0.8753743802         0.7646754434       0.001040398099      8.155538542e-06       3.58161074e-15      2.559687039e-25      1.935011563e-29       1.37204199e-49         0.7689854034         0.7113733031         0.5337137865         0.2644772312          0.128702509       0.002716290346       0.009793876734      6.462455892e-20          3.227192246          2.847278975          2.650877419         0.6364898127         0.6381907572       0.001949902442        0.01731813926      2.354406621e-08          0.973545565         0.8955894337          0.732197687         0.2663220408        0.06551674235      0.0001131336418      3.105592924e-06      6.779099738e-26 
36 2          2.332194081          3.195102814          2.090889241          2.729240066         0.9060164897         0.7101866078      0.0009733309241      9.145630419e-06      2.016198039e-16      9.419752876e-26      5.264196906e-32      1.710571802e-50           1.11751302          1.040105288          0.806119384         0.3442808292        0.06791920573      4.551902795e-05      2.095386704e-05      7.466658879e-23          3.016112178          2.668754584           2.43550257         0.6440992809         0.6510619703       0.005909274281        0.02056615119      1.554996492e-10         0.8764000801         0.7965237346          0.682589295         0.2134165013        0.07811811768      0.0001031046993      4.314455356e-06       7.36197484e-14 
37 2          2.673324083          3.716763927          2.352208431          3.217285141         0.9046431121         0.9276531666      0.0006799944123      2.176195107e-05      2.907280384e-17      2.163122754e-23      8.480356481e-34      9.179049389e-46         0.9578027211         0.8822659738         0.6780611492         0.3130856119         0.1655606507       0.001640262758       0.005209121783      3.166919598e-14          3.933472219          3.479919542           3.20614619          0.803911195         0.7617574836       0.003539676033        0.02651008777      6.425098251e-07          1.321444337          1.214510632         0.9944539157         0.3612773712        0.09832610598        0.00065135364      1.518297009e-06      9.860001919e-12 
38 2          2.403349581          3.173653265          2.152919989          2.705265944         0.9034350912         0.6793025136      0.0009637175591      2.400556198e-06      8.965874396e-16      2.092097231e-29      1.227280782e-30      5.687326866e-58          1.116222037          1.034947337         0.8096305027         0.3396776448         0.0912316537      0.0003111089484      2.511561307e-05      5.052427105e-18          3.054700871          2.688493662          2.502503597         0.6105320213         0.6623751837       0.002866914791        0.03768281267      2.938933365e-08         0.8088144323         0.7367647771         0.6254742023          0.202061703        0.07011938147        0.00010260309       9.35088162e-07      3.848023033e-19 