ITEM: TIMESTEP
0
ITEM: NUMBER OF ATOMS
54
ITEM: BOX BOUNDS xy xz yz pp pp pp
-2.6732977382222696e-02 1.9174382766165152e+01 2.9506541316800546e-05
0.0000000000000000e+00 1.1540010645371973e+01 -2.6732977382222696e-02
0.0000000000000000e+00 2.9999991154072013e+01 1.9850802815995338e-05
ITEM: ATOMS id type c_1[1] c_1[2] c_1[3] c_1[4] c_1[5] c_1[6] c_1[7] c_1[8] c_1[9] c_1[10] c_1[11] c_1[12] c_1[13] c_1[14] c_1[15] c_1[16] c_1[17] c_1[18] c_1[19] c_1[20] c_1[21] c_1[22] c_1[23] c_1[24] c_1[25] c_1[26] c_1[27] c_1[28] c_1[29] c_1[30] c_1[31] c_1[32] c_1[33] c_1[34] c_1[35] c_1[36] 
1 1          2.172964039           4.97973157          1.921144023          4.432327065         0.7002226665          1.820923199      0.0003079469234       0.003223399521      1.352392182e-17      2.257573784e-14      2.973768854e-34      4.400569746e-28         0.5417477404         0.4963947397         0.4096674557         0.1460544458        0.04892186719      0.0006774526942      7.872055603e-05      1.187529229e-10          4.219616933          3.826411392           3.22932152          1.105309166         0.6496592483        0.02427844643       0.005232403743       0.002134625774          3.251346201          3.138322157          2.040177762           1.36527603         0.1461526918        0.04779924639      0.0003873263017      8.941685325e-05 
2 1          2.263212351          4.963075597          1.998200848          4.403122247         0.7394157467          1.760555654      0.0005548284205       0.001570913413      2.337170396e-17      3.773141351e-16      4.557412688e-34      9.630118577e-32         0.5795463312         0.5362106446         0.4282449314         0.1671286207        0.03410690838      0.0004436426428      4.439794302e-05      2.247381647e-12          4.280990457          3.885041766           3.26776987          1.133282615         0.6686940835        0.03738498978       0.008064391206      4.020719947e-05          3.096118314           2.97998814          1.966798586          1.272173775         0.1584962876        0.05184110177      0.0005884307106       0.004274313866 
3 1          2.299920142           4.87676034          2.030190444          4.322104912         0.7259644008          1.692738693      0.0002876043737       0.001426870165      9.847798333e-18      6.830985644e-16      1.583643835e-34      4.713377996e-31         0.5837817715         0.5303172913         0.4512179977          0.146637061        0.06535878723      0.0007414850128      7.968235837e-05      1.086929237e-08          4.206152541          3.804254842          3.242774185          1.074427935         0.6633484059        0.02548045036       0.007034904844      1.016689395e-07          2.883162284            2.7682586          1.849005041          1.162981908          0.144070725        0.04198406904      3.344166891e-05      0.0004647673581 
4 1          2.237586129          5.049128003          1.963087205          4.466384839         0.6582248887          1.758683028      0.0001497361603        0.00141488232      4.418488882e-19      1.871835794e-16      3.326983566e-37       3.02383409e-32         0.5101772791         0.4661444599          0.388184387         0.1347057592        0.05064916132      0.0002658293638      0.0001234641414      7.735621593e-11          3.995464569          3.601279978          3.100880067         0.9993921817         0.6857737866        0.03257537046       0.007864964229      1.804028217e-05           3.14247499          3.013364796          2.022200729          1.260310335         0.1762948893        0.04953040701      0.0009901628542       0.001844809834 
5 1          2.137432516          5.014348037          1.872902597          4.460122648         0.6325663765          1.830497883      0.0001751982689        0.00206940628      4.425618783e-19      2.410273264e-15      3.326993054e-37      7.784765426e-30         0.4599558132         0.4221161345          0.348340361         0.1230561894        0.03298457504      0.0001048958977      0.0001240001539      8.860571983e-14          3.890594858          3.521872692          2.986239642          1.011380221         0.6351141218        0.03637569606        0.01108166058      5.842349674e-06          3.286505323          3.171336932          2.067995762          1.373410484         0.1575988227        0.06391801384       0.002595857539       0.001274586914 
6 1          2.233385249          5.025894575          1.954689153          4.471794618         0.6342047662          1.835248019      4.826317809e-05       0.001761163159        7.1366244e-22      7.085885976e-16       9.48748611e-43      6.696278537e-31          0.497275681         0.4478572824          0.392572963         0.1156116854        0.06600399825      0.0002046158478      0.0001791533281      2.614896703e-09          4.086903872          3.682574466          3.185643062          1.004225879         0.6705105497        0.02243768608       0.004272257337      1.133716865e-05           3.27515257          3.169392045          2.040247605          1.393138501         0.1460689781        0.06348106667      0.0006083935555        0.00756008915 
7 1          2.337837771          5.138472672           2.06685412           4.56109711         0.7627382037          1.834097449      0.0007204947513       0.001867054356      5.805696078e-16      4.773173123e-15      5.208361375e-31      3.393103513e-29         0.6248115748         0.5752879163         0.4660342054         0.1756571125        0.05010062689      0.0007109002144      7.638325023e-05      5.931887448e-13          4.591644956          4.173553404          3.486196337          1.237733241         0.7190930207        0.04655524086       0.007636824124      1.114274773e-06          3.365860205           3.23799783          2.146290775          1.372650643         0.1633826953        0.05856250831      0.0005360041967       0.003148184479 
8 1          2.219408314          5.179261616          1.960794629            4.5872864          0.734990851          1.787351145      0.0006739688019       0.001212029334      5.805224129e-16      9.756456837e-17      5.208361335e-31      1.141888967e-32         0.5571064062          0.512802386         0.4126321244         0.1601238934         0.0542992937      0.0006560613373      8.246943792e-05      1.273925518e-08          4.350981834          3.944867731          3.324422754          1.150114144         0.7057725819        0.04797967074        0.01136058141      4.311911096e-06           3.33452512          3.185215706          2.180368717           1.29695351          0.197256815        0.05029944113      0.0001422339182       0.001291781784 
9 1          2.220586237          5.248631203          1.947274023          4.687860475         0.6543795741          1.974074488      0.0001221863228       0.002292935209      4.198802061e-20      2.870164797e-15      2.978115391e-39        1.1163683e-29         0.5067192842         0.4548640533         0.3998418489         0.1184585691        0.08240525604      0.0002514416928      0.0001486883935      2.717978724e-10          4.271571483           3.88188596          3.253450644          1.137670236         0.6392589239        0.03506905599       0.005007417051      0.0001215605805          3.880379424          3.740779181          2.459312251          1.601474931         0.1724044561        0.07655963428      3.585289605e-05      0.0007788942303 
10 1          2.169856674          4.948159598          1.910977024          4.382896291         0.6856050332          1.727628087      0.0002824848212       0.001346441779      2.361018851e-18      4.489650709e-16      8.967252592e-36      2.743694813e-31         0.5011993502         0.4614955065         0.3716124129         0.1435102055        0.04651367621      0.0004731478862       8.79825602e-05      5.945953044e-11          4.153066814          3.749333268          3.221906722          1.039195209         0.6691858014        0.03143548736       0.004782641568       0.002170881684           3.03096773          2.898682014          1.966874303          1.197749712         0.1881158033        0.04211733224       0.000466150768       0.001899438296 
11 1           2.33146007          5.096279731          2.050330439          4.531588238         0.7101655368          1.841080226      0.0002476349253       0.002356708239      2.323258388e-18      9.267839876e-15      8.964296372e-36      1.169419169e-28         0.5947751702         0.5419698981         0.4551512388         0.1543537246        0.06475016066      0.0005300093238      0.0001672449442      7.878249533e-13           4.53718047          4.097541203          3.511187757          1.143776542         0.7314441346        0.02571098955        0.01016559354      1.383460193e-05          3.404468523          3.271255358          2.177813928          1.383158276         0.1845576537        0.06119700902      0.0005791665945       0.001910841603 
12 1          2.357640471          4.844725304          2.083646244          4.315153853         0.7404431498          1.775902155      0.0001407313209       0.001981073258      5.142245584e-20       9.99993745e-15      4.082437721e-39      1.447898276e-28          0.646315874         0.5853154399         0.5020365425         0.1598315013        0.08292842526       0.001352576255      0.0002216322045      2.346699576e-11          4.540386844          4.117753854          3.485570475          1.175593995         0.6573580182        0.02460527324       0.002871784526      1.538533615e-06          3.049383279          2.946488312          1.913400631          1.281689469         0.1331849382        0.05144734018       7.31871981e-05        0.01225523586 
13 1          2.138242135          4.913856413          1.863541405          4.374512786         0.5820727575          1.767823035      4.005937411e-05       0.001765559221       5.73433195e-22      7.007404378e-16      6.152601815e-43       3.96064745e-31         0.4499723862         0.4018446025         0.3623340973        0.09665778384        0.07050229533      5.223946315e-05      8.638315424e-05      1.502325424e-11          3.736563379           3.35593943          2.936126523         0.8895913499         0.6274032508        0.01224031736        0.00649645347      9.810381575e-07          3.063472362          2.957861051          1.923412444          1.283051401         0.1266597958        0.04674081929      0.0001640993569      0.0004316479466 
14 1          2.163467668           4.96361931          1.898298336          4.407336716         0.6471250727            1.7924653      0.0002802660049       0.001806664139      1.079344567e-17      1.291089602e-15      1.900015507e-34      2.151146577e-30         0.4833795987         0.4387314648         0.3752413209         0.1192965221        0.05248476326      0.0001058333252      7.037876086e-05      6.098624185e-12          3.966787558          3.578067583          3.076288701         0.9952827938          0.666765541        0.03321520208       0.009473515647      3.798586205e-07          3.137138581          3.030971355          1.963124403           1.32470796         0.1582588778         0.0636272694       0.001290294917       0.004251282894 
15 1          2.133434983          5.018761702          1.882606251          4.465738219         0.7011702418          1.840384339      0.0004888892037       0.002560908661      1.429252064e-17      2.870926928e-14      2.102798079e-34      1.192250024e-27         0.5252723817         0.4870348685         0.3841865177         0.1559236598        0.03271067615       0.000212237657      6.301335415e-05      1.563484481e-11          4.040271448          3.678473187          3.047034969          1.114240058         0.6388876854        0.04788263151       0.007995344977      7.688069657e-05          3.328550365          3.216837914          2.081645426          1.405661791         0.1455523621        0.05982306268      4.009276904e-05      5.012559421e-05 
16 1          2.329946252          4.912337199           2.05996851          4.375575544         0.7404413669          1.790607562      0.0002346170022       0.001568695003      3.499081479e-18      4.537069117e-16      2.027825721e-35      2.517698152e-31          0.620188842         0.5632158445         0.4793745826         0.1559617214        0.07221523658        0.00136761569      6.970358402e-05      1.194825571e-09          4.385761256          3.975099172          3.357481948          1.149468917         0.6934768243         0.0344811877       0.008500950422      5.747977038e-06          3.121140214          3.019957624          1.947604084          1.321822244         0.1200261704        0.05571841924      9.303261349e-05       0.001133018421 
17 1          2.284691702          4.781948727          2.016175622          4.244325809         0.7188730234          1.695453075       0.000356260745       0.001643560615      2.994666918e-17      9.108684551e-16      1.442469408e-33      7.562960306e-31         0.5773073701         0.5291722763         0.4359952167         0.1561696964        0.05202917517      0.0005926622614      9.433952468e-05      1.027082814e-10           4.17795415          3.774738763           3.22780279          1.059813495         0.6697914724        0.02671894057        0.01387496934      7.133262162e-07          2.764593783          2.672359234          1.724834806          1.171075595         0.1264341257        0.04591497602      0.0002540984713       0.001165773962 
18 1          2.144815667          4.973599574          1.892650985          4.428815868         0.6859297423          1.821971936      0.0003738653777       0.001770018077       2.99472362e-17      4.687918783e-16      1.442469408e-33      2.185314552e-31         0.5041819544         0.4665076547         0.3721227455         0.1458331954        0.02999971891      0.0003045286103        0.00020618238      2.113126437e-11           4.07552699          3.694688025          3.123471019          1.067565985         0.6579074838        0.04673028363       0.002741656484      0.0005773684753          3.270151151          3.156096097          2.055122019          1.369018677         0.1497733565        0.05671547569      0.0003824033078      0.0008807263699 
19 2          2.643520944           3.66663279          2.342010708          3.168051884         0.9342806985         0.9058978805       0.001292456656      1.974042347e-05      2.578203807e-15      5.063701312e-24        9.4991987e-30      4.999739135e-47          1.035868715          0.947747943          0.759614476         0.3092806816         0.1729541733        0.00304631304       0.002081978151      1.060811508e-10           3.73579495           3.31890027          3.013087037         0.8002177072         0.7054865871       0.009453885904        0.01899038512      5.960043592e-06          1.175983385          1.080759982         0.8833499432         0.3236447829        0.09373333453       0.001022973994      1.195879462e-05      8.070217641e-14 
20 2          2.458115132          3.312257202          2.195008903          2.840928256         0.9069862376         0.7739797723      0.0008871941595      1.643149865e-05      1.811005942e-16       6.61671271e-24      3.633981668e-32      8.738728641e-47          1.182386606          1.084975274         0.8832229946         0.3312825823         0.1238699506      0.0004051049219      0.0001571909902      8.687682739e-19          3.171399742          2.817890602          2.535980837         0.7048993765         0.6478456488       0.005162678554        0.02137566551      1.732956742e-08         0.9491872283         0.8639458453         0.7358026229         0.2351234158        0.08347930821      0.0001922879734       1.11034077e-05      8.852897852e-16 
21 2          2.665572337           3.50765845          2.339673786           3.01000722          0.875436913         0.8096964113      0.0004809519806      7.519218897e-06       5.06381238e-18      9.753546298e-27       3.35258326e-35      1.849089042e-52         0.8995253849         0.8243422667         0.6427187911         0.2874990893         0.1679273596       0.001731233495        0.01117890011      2.681498885e-13          3.406349467          2.995467658          2.808884064         0.6604612072          0.726032618       0.003965073231        0.02450576845      7.263892474e-06          1.032867458         0.9491404328         0.7778481352         0.2814493176        0.07590899825      0.0001761080484       3.68948307e-05      8.450395641e-13 
22 2          2.276167254          2.649117983          2.071537017          2.215422288          1.003637268         0.4701356615       0.002039815028      8.687815018e-07      4.068935053e-15      1.006356254e-29      1.737187466e-29      2.477660877e-58          1.322357392          1.225929549         0.9690733938          0.390121642        0.07861201363      4.249414298e-05      2.200782777e-05      3.790785379e-24          2.601835617          2.276965269          2.151661124         0.4975599113         0.6338408612       0.001815436119        0.02003646351      1.959110879e-13         0.5320418466         0.4781131818          0.425175997         0.1175726912        0.06543945344      2.224385382e-05      5.877735548e-06      1.610754529e-23 
23 2          2.596610874          3.409749411          2.257700664          2.932914831         0.7576506342         0.8047464168      0.0001668784227      9.493249751e-06      6.829527483e-20      1.912672469e-25      7.712447163e-39      7.689404661e-50         0.7924907322         0.7197969027         0.5923294497         0.2231637608           0.14090549       0.001156821709       0.002872052507      3.680417873e-21          3.230089328          2.838022409          2.674324797         0.6127804477         0.6806475525       0.001084994373        0.02328144763      2.516751123e-08          1.003444532         0.9215504488         0.7577496871         0.2713068443        0.07280954947      0.0004341634199      1.115487979e-05      8.074115629e-15 
24 2          2.251920918          3.072834271          2.033291807          2.595997149         0.9357438457          0.615806824       0.001339331257      3.110493893e-06      7.639945037e-16      5.180512459e-28      6.829410981e-31      5.308253285e-55           1.13799016           1.06127716         0.8161450404         0.3558201719         0.0639895231      3.528685632e-05      1.102632028e-05      5.108749812e-24          2.863002302          2.523056499          2.331698885         0.5883664924         0.6439115552       0.003342124144        0.02374413351      4.537630809e-13         0.7598213819         0.6851868074         0.6017738377         0.1739251911        0.08706000391      4.206577258e-05      0.0001236240925      4.342786023e-14 
25 2          2.658648538            3.6676774          2.326483284          3.180495696          0.823036691         0.9541128811      0.0002714651343      4.716549868e-05      7.751193092e-19      3.130904663e-22      9.811171002e-37      1.836978439e-43         0.8272113477         0.7565773752         0.6019204266          0.252006849         0.1442960609       0.001657020764       0.006312101712      2.651658015e-12          3.684908426          3.258198392          3.013609764         0.7418013367         0.7044308786       0.003379258554        0.02526603717      2.861915334e-05          1.295284389          1.199306572         0.9523379663         0.3793381407        0.08139848046      0.0005912799323       0.000232013664       1.80937319e-14 
26 2          2.190742816          2.858208921          1.959851496          2.416300011         0.8083087533         0.5768733404      0.0004688324676       3.62117198e-06      5.893763053e-18      7.527131651e-28      2.906201629e-35      8.802264997e-55          1.009951198         0.9276814388         0.7544995401         0.2822491288        0.09494165917      6.228978217e-05      0.0003456636397      8.979403295e-21          2.522547717          2.212190446          2.077577327         0.4919003046         0.5889753639       0.001901587816        0.02647835472      3.213787343e-11         0.6437879442         0.5810763931         0.5090863122         0.1482376757        0.07190799697      1.568349104e-05      8.940543111e-06      4.768435386e-16 
27 2          2.641992635          3.806178254          2.319030579          3.312505215         0.8635812634          1.014065411       0.001073686012       6.17417137e-05      2.266664705e-15      3.297049989e-21      7.766133903e-30       1.98372497e-41         0.7866563129         0.7195222199         0.5654674268         0.2478626688         0.1446472592       0.002150121635        0.01516857833      1.021985937e-09           3.83161184          3.400360756          3.103722399         0.8067464955         0.7213137907        0.01123516374        0.01993945231      0.0001101863142            1.3661112          1.269123365         0.9944419775         0.4113380382        0.07836171896       0.001050412922      1.380267805e-05      2.866258825e-09 
28 2          2.521923065          3.427926539          2.269720745          2.927138172          1.015667233          0.763797682       0.001978501515      1.398869349e-05      1.688333174e-14      4.993934782e-24      4.137263624e-28      4.998700066e-47          1.326512475          1.230687383         0.9577048735         0.4087541349         0.1140909178      0.0003040465826      0.0002670838532       7.13330216e-18          3.473342954          3.079132213          2.800270595         0.7463724988         0.7145179433       0.006694949764        0.02221704948      4.483729933e-09         0.9617901025         0.8741351261         0.7458335369          0.238100165        0.09577206611      0.0002670964889      1.554541347e-05      5.725446919e-15 
29 2          2.410439779           3.37523754          2.128750662          2.895163459         0.8295838924         0.7658370773      0.0006353954976      5.817376084e-06      5.379684967e-17      9.750742404e-27      3.624806844e-33      1.852143589e-52         0.8615273546         0.7965478611         0.6183732788         0.2706131484         0.1053362691      0.0006445794981         0.0023158577      8.493705435e-24          3.200783807          2.822541892          2.622248029         0.6394638225         0.6649784545       0.003283742519        0.02413953868      8.295563401e-10          1.006350514         0.9156320917         0.7799274224         0.2495800874        0.09219665289      0.0002038003952      3.085617711e-06      2.442599982e-13 
30 2          2.408212289           3.25440073          2.153437472          2.781144647         0.9056075323         0.7180028615      0.0008480687891      5.361703259e-06      8.114611031e-17      2.025975577e-27      5.297375237e-33      6.609398443e-54          1.064063377         0.9838187834         0.7715929836         0.3249761794         0.1124761739       0.001179888638      0.0007379311728        8.9821616e-18            3.2273501          2.846491394          2.631833298         0.6586114343         0.7023588057       0.002634671192        0.02258660072      4.958002017e-06         0.9298160644         0.8432716737         0.7270795999         0.2234260564        0.09089515494      0.0002068289188      1.198285806e-05      8.848409119e-15 
31 2          2.531217842           3.60321237          2.212842895          3.102880534          0.785013873         0.8609855413      0.0002432654455      1.612282496e-05      6.143683233e-19      6.616620851e-24       6.26040512e-37      8.738728638e-47         0.8376355823         0.7611883602         0.6219150147          0.240521708         0.1559453889      0.0009363839661       0.003415853254      4.001727147e-15          3.355688856          2.952538716          2.763448015         0.6541810031         0.6927867845       0.002870214428        0.03953294555      2.936559906e-07          1.173681496          1.072709737          0.897134596         0.3051462924         0.1005306497      0.0002922974748      2.060315727e-05       5.19481386e-13 
32 2          2.203757477           3.07364362          1.969172173          2.617450323         0.8168160764         0.6579426395       0.000659905843      3.079356512e-06      5.607289009e-17      1.050604802e-28      3.717714375e-33      1.487808313e-56         0.9738994011         0.8898201418          0.732807873         0.2668879732         0.1187992896        0.00031244181      0.0001408026101      1.305192114e-20          2.867366395          2.530237507           2.33421863         0.5891542953         0.6032157586       0.001362059736        0.03156998644      1.624078496e-11         0.8545542706         0.7682256191         0.6819372049         0.1901134908         0.1055812495      0.0001305247988        1.2275992e-05      1.112255058e-16 
33 2          2.667061038          3.553401446          2.350239573          3.062684009         0.8833191875         0.8632155503      0.0005608242811      2.503642035e-05      8.447353202e-17      6.752080656e-23      1.126981168e-32      8.797766214e-45          1.043541178         0.9538933429         0.7781908851         0.2952810992         0.1454522185       0.001878089596       0.001251103394      6.817705505e-11          3.549879988           3.13979096          2.887776672         0.7324114327         0.7074391904       0.004612643623        0.02918468104      4.921076885e-09          1.058529833         0.9726024851          0.797948966         0.2877920869         0.0767045064       0.000654401268      6.903513282e-05       2.27790005e-11 
34 2           2.29131809          3.266073412           2.04869064          2.800638193          0.863041984         0.7596703592      0.0006856053614      1.159992375e-05      2.690789832e-17      6.024059677e-25      7.237378036e-34      7.474825395e-49          1.077439398         0.9879475878         0.8047411012         0.3017876146         0.1169091516      0.0001674108434      0.0001065368897      4.293413413e-22          3.144259271          2.782493423          2.548072851         0.6608390159         0.6512627926       0.005447826842        0.01502134214      1.279356258e-09         0.9636324061         0.8740345803         0.7516932532         0.2336269469        0.09887253342      0.0001742777229      4.609856113e-05      1.154833815e-17 
35 2          2.838485185          3.935531713           2.51130569          3.414906225          1.002493414          1.027083229       0.001047377266      5.484946404e-05      2.185404531e-16      3.794983014e-22      3.881626039e-32      1.925005215e-43          1.082930872          1.002801675         0.7614457528         0.3613972251         0.1643608141       0.007331038082       0.008933019455      2.483207805e-08          4.222294273          3.767441708          3.364937476         0.9507207598         0.7553324596        0.01004690208        0.02957941917      7.059343524e-06          1.409924895          1.300467619          1.049187597         0.3993250907         0.1003786474       0.002562239085      4.315666055e-06      7.942553554e-09 
36 2          2.426787374          2.996553261          2.181714925          2.538378041         0.9528726877         0.6501387252       0.001234812234      3.008176401e-05      6.713938619e-16      6.820211987e-23      3.722894437e-31      8.804912185e-45          1.293517045          1.194628406         0.9553495914         0.3736658131         0.0966164027      0.0001427548266      0.0001897531832      2.882658196e-17          3.057037716          2.696294293          2.484368844         0.6347273739         0.6931703704       0.006102360604        0.02179853121      2.743379389e-12         0.7477161539         0.6788612339         0.5798689925         0.1850629257        0.07992238747      9.252160717e-05      0.0002688145558      5.011132621e-13 
37 2           2.78318147          3.874655125          2.448328632          3.360096184         0.9049022041          1.022822036      0.0003695402306       0.000176962333      4.057307005e-18      1.137225564e-18      2.652440877e-35      2.175332423e-36         0.9121086629          0.831623563          0.667612011         0.2740679556         0.1631755687       0.003780131234        0.01154661936      3.472009156e-07          3.966277323           3.53322348          3.183365784         0.8664341935         0.6924474287       0.003420404287        0.02659487287      2.286285735e-06          1.351597081          1.256371117         0.9813393621          0.410017954        0.07842157347       0.001202818581      2.123700103e-05      5.219476407e-09 
38 2          2.360748181          3.265532336          2.126434061          2.793866027         0.9656324871         0.7462336338       0.001593715561      1.174559347e-05      2.881573863e-15      5.370333571e-25      1.118906146e-29      5.947702319e-49          1.190110315          1.105251621         0.8569905871         0.3692409619        0.09737452401      0.0002911486261      8.219521723e-05      1.000086539e-18          3.362102357          2.982418586          2.708576319         0.7243354323         0.6794018832       0.006567285984          0.017395475      4.846511854e-08          0.979361269         0.8872734423         0.7658309258         0.2354452985         0.1043888531      0.0003231563494      2.095750191e-05      1.514856152e-16 