ITEM: TIMESTEP
0
ITEM: NUMBER OF ATOMS
54
ITEM: BOX BOUNDS xy xz yz pp pp pp
-2.6732977382222696e-02 1.9174382766165152e+01 2.9506541316800546e-05
0.0000000000000000e+00 1.1540010645371973e+01 -2.6732977382222696e-02
0.0000000000000000e+00 2.9999991154072013e+01 1.9850802815995338e-05
ITEM: ATOMS id type c_1[1] c_1[2] c_1[3] c_1[4] c_1[5] c_1[6] c_1[7] c_1[8] c_1[9] c_1[10] c_1[11] c_1[12] c_1[13] c_1[14] c_1[15] c_1[16] c_1[17] c_1[18] c_1[19] c_1[20] c_1[21] c_1[22] c_1[23] c_1[24] c_1[25] c_1[26] c_1[27] c_1[28] c_1[29] c_1[30] c_1[31] c_1[32] c_1[33] c_1[34] c_1[35] c_1[36] 
1 1           2.29772399          4.952479261          2.007751529          4.408886005         0.6405535702          1.798325051      3.622594952e-05       0.001518689075      1.191317138e-22      1.341642661e-16      2.661734278e-44      9.729800998e-33         0.5458659585         0.4898125051          0.433321398         0.1242524663        0.08240273985      0.0003656784832      8.452195142e-05       1.39546532e-10          4.086704305          3.670957472          3.208311316          0.978753886         0.7061804617        0.02390794285       0.004887608042      7.007746096e-07          3.249520828          3.124999645          2.073489314            1.3237716         0.1621773969        0.05509425969      0.0004335925031       0.002237412588 
2 1          2.316317725          4.919853263          2.036355339          4.362238695         0.6894387649          1.760526538      7.371100813e-05       0.001801998885      6.062999937e-22      1.009175558e-15      4.425634136e-43      9.343634875e-31         0.5784928195         0.5297176225         0.4401520144         0.1530022828        0.04745889402       0.001144782155      0.0002000970643      1.307404536e-13          4.190209441          3.775885538           3.25437737           1.04292048         0.7117170367          0.022834139         0.0071499224      2.337347323e-06          3.003043705          2.904378064          1.874339195          1.273532475         0.1388772013        0.05895863552      0.0007151263003       0.005005599533 
3 1          2.215434871           4.95941289           1.94404966           4.40833058         0.6604960846          1.788871304      0.0001360218083       0.001510586952      9.866464047e-20      3.897378306e-16      1.677884352e-38      2.152786699e-31         0.5334547977         0.4905326208          0.402789274          0.144368408        0.03370571918      0.0007932835356       6.02217755e-05      6.787064485e-15          4.033671443          3.640743803          3.122249532           1.01774033         0.6759491095        0.03005048911       0.007396681132      3.354154478e-06          3.148169123          3.041179891          1.975980003          1.320599364         0.1357937494         0.0578952201      0.0006345482791       0.002133033672 
4 1           2.18238546          5.140764297          1.905850768          4.584311466         0.6250957652          1.901463132      0.0001185248444       0.002222587199      9.821214104e-20      3.452737328e-15      1.677842884e-38       1.05596445e-29         0.4834515672         0.4368570468         0.3765362307         0.1180127002        0.06617957832      9.331016308e-05       3.99887916e-05      1.118920128e-15          4.107362117          3.702552002           3.19393773           1.01871486         0.6834600128        0.02745647475       0.006017594345      7.461476892e-06          3.589326589           3.46146479           2.26306978          1.494550441         0.1705788669        0.06591557538      0.0008733806317      0.0003104517554 
5 1          2.197150783          5.124950055          1.925383433          4.579402721         0.6647104999          1.940296563       0.001039383677       0.002468764359      6.069375048e-15      2.449880303e-15      5.518086597e-29      4.489297558e-30         0.4400720501         0.4042929341         0.3291028869         0.1226789401        0.04070143969      0.0001444737989      2.038601722e-05       5.02213556e-13          4.314405581          3.910882655          3.288200822          1.151640167          0.741253448        0.04687368503        0.00880445393      0.0001663656372          3.733723025          3.601476561          2.369085972          1.540903977         0.1641857921        0.08438987228       0.001008913019        0.00993586258 
6 1          2.132739041          5.061874211          1.870818788           4.50093843         0.6632437585          1.818761104       0.001047391666       0.001457027329      6.069375049e-15      9.363043994e-17      5.518086597e-29       5.52464824e-33         0.4331449246         0.4017444569         0.3159422102         0.1296516339        0.02894203369      0.0002482488613      2.893951039e-05      6.049031568e-14          4.090273071          3.688360995          3.158029981          1.045173094         0.7570719611        0.04796063414       0.006190440094      1.772907415e-05          3.338505166          3.208486343          2.130929349          1.358881969         0.1776998737        0.05583307157      0.0002069895465      0.0003027172786 
7 1          2.323642519          5.179575181          2.050229186          4.616832579          0.724126427          1.908828328      0.0003296399375       0.001928432884      2.284298952e-17      1.007521813e-15       8.42387716e-34      1.326131352e-30         0.5946099435         0.5365720537         0.4642334663         0.1448786006        0.08857488491       0.002169806003      6.111110404e-05      8.779680574e-11          4.638949279          4.210297197          3.537833928          1.231307498         0.7319415713        0.03944179894       0.005327624434      5.357258442e-06          3.629975553          3.494759509          2.313329941          1.484199064          0.173714756        0.07491187936      0.0001446353717       0.002501954514 
8 1          2.281839897           5.17134867          2.014533968          4.597049166         0.7545068085          1.847639349       0.001748731938        0.00158252575      7.054774649e-14      3.081673353e-16      7.218480612e-27      9.408207019e-32         0.5886780257         0.5432754157         0.4347764807         0.1701060567          0.048183474      0.0002605153259      7.690466831e-05      1.381734815e-10          4.608705656          4.186534448          3.498836031          1.242770567         0.7300398139        0.04261489336        0.01870241121      1.161712655e-05          3.463631194           3.32247617          2.231399076          1.386472017         0.1800367799        0.05700672861      0.0001600193032      0.0003032549574 
9 1          2.334778974          5.194155813           2.06165452          4.626967766         0.7686922911          1.905569388       0.001749080697       0.002095464079      7.054774649e-14      1.056609197e-15      7.218480612e-27      7.285984482e-31         0.5955073837         0.5502184354         0.4382679156         0.1737886732        0.04642209938      0.0003621479384      0.0003923918029      8.607293678e-10          4.745827118          4.319949501          3.587601188          1.300707652         0.7544494008        0.05803568058       0.005531283291       0.001334993846          3.656811956          3.519357076           2.33144239          1.493850836         0.1742161014        0.06990356181      0.0003638619142       0.003207518097 
10 1           2.23806719          5.038088475           1.95981809          4.478891785         0.6342000492          1.820608918      5.097769547e-05       0.001530971338      1.476233353e-21      1.880212684e-16      4.022213755e-42      2.439123391e-32         0.5189661715         0.4631503215         0.4166284437         0.1132442239        0.08912039477      0.0007698803926      0.0001947848478      4.034248092e-12          4.138472229          3.723904637          3.230821216          1.011406346         0.7034863643        0.02377058501       0.004822197551      8.643118345e-08          3.279565144          3.155696711          2.089809374          1.340798803         0.1646805628        0.05696352615      0.0006271813502       0.009463896907 
11 1          2.161365769          5.170130634          1.892182261          4.604162812         0.6379897433          1.909240738      0.0001546704815       0.002181115258       1.61940377e-19      1.969118299e-15      4.450459535e-38      3.940305594e-30         0.4925411529         0.4482911175         0.3773858036         0.1273216906        0.05709401073       0.000306704195      0.0001229748144      3.580971949e-13          4.081049031          3.693481515          3.132908536          1.061080614          0.679310907        0.04165694574       0.006709681225      1.950122622e-06          3.634024685          3.499656688          2.306927747          1.495275172         0.1774209172        0.06671817144      0.0004742109489       0.001550513194 
12 1          2.203591029          5.080299759          1.938372994          4.514100453         0.7011601093          1.800458853      0.0004327698142       0.001259605977      2.300345368e-17      1.070306041e-16      8.424322166e-34       8.47501804e-33         0.5212445404         0.4804209871         0.3843931945         0.1516365553        0.04932890942      0.0005737482561      0.0001476352979      1.325307441e-10           4.26896688          3.861030738          3.275450288           1.11330919         0.7355840322        0.04498583096       0.008544699843      5.610906122e-06          3.346635959          3.200507673          2.185086768          1.304586978         0.1672653248        0.04560265454      0.0002461068705       0.002257306544 
13 1          2.176628691          4.966230837          1.911275797          4.406271129          0.663700722          1.781402202      0.0002819308277       0.001899867835      7.992035834e-18      2.384098181e-15      1.045967857e-34       7.40571826e-30         0.4963390118         0.4517980191          0.378512574         0.1306986767        0.06297818476      0.0009216392987      0.0001529805751      7.097611442e-11          4.003856933          3.625558564          3.077608715          1.033380965         0.6229713925        0.03014323805       0.006534385499      2.809387994e-06          3.092993639          2.985337964          1.937973128          1.302226575         0.1609019672        0.05390090185      0.0009039402679       0.001756389714 
14 1          2.186430541          4.963359413          1.913179178          4.406324685         0.6478998413          1.749812234      0.0002892204432       0.001226450473      7.992368322e-18      8.744671056e-17      1.045967861e-34      4.872126408e-33         0.4372234292         0.3998175262         0.3282728635         0.1208840868        0.05324581086      0.0001439263298      7.423479937e-05      1.152630418e-19          3.997157577          3.598402704          3.120026198         0.9792614305         0.6770202259        0.03020930103       0.007346158285      1.123345304e-06          3.066071695           2.95016005          1.954243406          1.250472079         0.1407864033        0.04818396204      0.0005285798841       0.001995998886 
15 1          2.237706851            4.8627745          1.954217948          4.345132927          0.639176253           1.81964361      0.0001083747605       0.001666985643      2.438613286e-20      4.155132902e-16      1.016389467e-39      1.334168191e-31         0.4926515313          0.443805332         0.3845691437         0.1196373364        0.07697024646      0.0001222172928      0.0001596824084      5.741023062e-10          4.021944541          3.629035422          3.126272939         0.9995739842          0.649643626         0.0298225318       0.003299380714      1.290424622e-06          3.166246482          3.069060504           1.96137123          1.358091837         0.1216606204         0.0575630863      0.0001272639816       0.006762566521 
16 1          2.325549906          5.043332053          2.052236457          4.471041296         0.7310440068          1.791528101      0.0001628274576       0.002027122169      4.918304486e-20      2.546895518e-15      2.147076137e-39      7.177540453e-30         0.6228463549         0.5701729966         0.4718219545         0.1673638014        0.05988133132       0.001811206555      0.0001388277487      1.234896692e-11          4.329593518          3.927567115          3.301931375          1.146655048         0.6834983512        0.02807482366        0.00568638832       5.15638251e-06          3.185628287          3.068555499          2.017889477          1.315773365         0.1579719894        0.05677970558       0.001700897573      0.0006250010692 
17 1          2.356763035          4.901189332           2.08529177          4.342027753         0.7631388281          1.702233345      0.0003712421797       0.001046054265       1.53208096e-17      3.289178137e-17      3.797575308e-34      8.193954067e-34         0.6828412164         0.6271905791         0.5152460152          0.185330035        0.05088238491       0.001190462572       0.000219422853      2.446299122e-13          4.358812846          3.937873986          3.354320979          1.123684022         0.7553818235        0.04044057483        0.01032637927      1.148487174e-05          2.927687787          2.808995478           1.88748056          1.171175221         0.1539621186        0.04779450007       0.000287646234       0.008364644124 
18 1          2.444335751          5.088321109          2.158740979          4.521742709         0.7764411815          1.827830767      0.0003305925161       0.001531065167       1.52956868e-17       1.67258488e-16      3.797563997e-34      2.197771179e-32         0.6835939034         0.6250276347         0.5182054841         0.1830198934        0.07042896544       0.001395584986      0.0001751978387       8.69834817e-10          4.614056721          4.183345046          3.518716875          1.228674763         0.7798635627        0.05218118691        0.00752042982      2.519673834e-05          3.414097624          3.272998988          2.207142466          1.356471749         0.1639778648        0.05256392893       0.000944906023      0.0002271891788 
19 2          2.542659062          3.420867103          2.232370794          2.930830979         0.8442805216         0.7761210675      0.0005894422122      5.092582137e-06      2.253003874e-17      1.008239917e-27      4.194781646e-34      1.989128852e-54         0.8269201181         0.7617995952         0.5875600528         0.2679178603          0.139537843       0.001767956792        0.00315485939       2.75529582e-22          3.195015109          2.814684549          2.619558799         0.6361247328         0.6694668562       0.003183188746        0.03250864151        7.7407415e-06         0.9987752511         0.9132205684         0.7636849489         0.2592394241        0.08068678539      0.0001523638022      8.922314544e-05       1.79544819e-17 
20 2          2.266748354          2.970331358          2.048077154          2.509026799         0.9361384577         0.5796588507       0.001505852674      9.544763771e-07      2.702680808e-15      7.509705556e-31      9.164561907e-30       1.31187782e-60          1.194426586          1.109657796         0.8687550791          0.359803112        0.07003902343       4.79475305e-05      8.741226657e-06      5.536746922e-27          2.842920873          2.496319014          2.338529899          0.557970594         0.6571355323       0.003255489636        0.02032593343      2.640923095e-12         0.7235900801         0.6516936705         0.5758199282         0.1625718344        0.08272459896      2.177481796e-05      4.701268896e-06      7.926855338e-19 
21 2          2.788042207          3.656655285          2.447088363          3.161942247         0.8889245433         0.9062636946      0.0004700322876      1.952751571e-05      7.911758821e-18      1.432089623e-23      6.649180714e-35      4.047615225e-46         0.9186420962         0.8410093788         0.6620795121         0.2875918432         0.1640490939        0.00308199067        0.01077714919      1.128514666e-17          3.807936678          3.357787423          3.134822228         0.7433383984         0.7580373887       0.002046642067        0.01900226723      8.374829051e-06          1.195320921          1.105863191         0.8823131659         0.3459131367        0.07322511218      0.0003350926182      3.758653556e-05      2.414518508e-15 
22 2          2.348896297          2.959611725          2.119344054          2.501575465         0.9341525898         0.5968141607       0.001003425399       5.41551109e-06      3.854460532e-16       3.89055754e-26       2.15280452e-31      3.259117886e-51          1.238382263          1.149997141         0.9000081858         0.3741343978        0.07934501325      0.0001725123815      5.374601616e-05      2.803582587e-21           2.84300523          2.496359332          2.336179632         0.5610646677         0.6580234392       0.003017235008        0.02895593682      1.019662046e-11         0.6783991888         0.6135452402         0.5338678787         0.1590878466        0.07179406337      2.286267825e-05      3.517329156e-05      5.733383567e-16 
23 2          2.648415323          3.633916147          2.332470945          3.129258662         0.8812430221         0.8610430477      0.0005187330956      7.029627636e-06      1.668735763e-17      4.172548863e-27      3.574444468e-34      3.095134033e-53         0.8572685926         0.7900492539          0.603765444         0.2842339705          0.147249535       0.002046824737       0.008829462845      1.381570962e-11          3.678956068          3.244412594          3.022352561         0.7251522673         0.7351375657       0.002167483848         0.0248345002      6.898561832e-08          1.187246682          1.088252667         0.8991776815         0.3180322198        0.09785523797      0.0002084349828      2.999905871e-06      2.137662461e-15 
24 2          2.188718097          3.004141312          1.962722357          2.542560193         0.8422148242         0.6050893339      0.0007138523987      2.264152826e-06      6.473871569e-17      3.140875814e-28      5.485591897e-33      2.285669166e-55          0.945257215          0.871432359         0.6938649091         0.2786742377         0.0965638554      0.0002008892767      0.0002966997786      4.868160358e-23          2.833829225          2.478820408          2.344172865         0.5409744637         0.6677553471       0.001823044674        0.04448380619      1.317018803e-10         0.8000603874         0.7203163568         0.6364262907         0.1801464963        0.09460177865      8.231240175e-05      3.828627749e-06      4.393748094e-19 
25 2          2.635338384          3.593854445           2.33371274          3.103204507           0.94170429         0.8799776968       0.001078844194      1.747159617e-05      7.533337226e-16      1.108316513e-24      8.307440558e-31      2.315674975e-48          1.013303386         0.9339139602         0.7204321791         0.3274645428          0.150370119       0.002604262155         0.0215771543       3.32616405e-18          3.761256055          3.331783862          3.048386226         0.7894080279         0.7458880732       0.007528143014        0.02847185798      1.984994965e-06          1.192088475          1.093194331         0.9042201676         0.3177805399        0.08959694222      0.0006181163138      2.028777071e-06      4.186093321e-11 
26 2          2.496382278          3.538059319          2.231153882          3.040288199         0.9307944175          0.833202513       0.001033952405      8.568321026e-06      9.909835025e-16       6.62383026e-27      1.498405837e-30      4.146545695e-53          1.111891165          1.028592153         0.8030250596         0.3431735017          0.123275882      0.0007300970086      9.380607895e-05      2.203890715e-16           3.61761633          3.201475981          2.935146948         0.7558138911         0.7337795793       0.006004498355        0.02391747589       1.74859161e-07          1.126497593          1.026798261         0.8661523628         0.2873102899         0.1068993576      0.0003347827752      1.662184197e-05      5.318992625e-17 
27 2          2.908375658          3.758044183           2.58206532          3.259805776          1.054619961         0.9865198721       0.001449555107      0.0001112918503      1.492567903e-15       6.37856717e-20      3.101488475e-30      7.118161726e-39          1.174138847          1.089335349         0.8160400977          0.402521988         0.1878339283       0.005358171643       0.007282603032      5.114972982e-10          4.382336065           3.91417857          3.495517189         0.9819605557         0.7465795941       0.006177360484        0.02208366143      7.547031881e-05          1.393358788          1.287136416          1.032707578         0.3989615081        0.09227629555       0.001353017131       3.30917672e-06      5.231568991e-12 
28 2          2.494494556          3.067578358          2.235125587          2.591569792         0.9412149933         0.6025089546      0.0008505063521      1.111931159e-06      4.736677311e-17      8.337532128e-31      1.690782948e-33      1.331658011e-60          1.195446843          1.105050995         0.8679392554         0.3635710774         0.1257790245      0.0007653734269      0.0002438458668      2.216572622e-16          2.976227575          2.605840501          2.462971067         0.5669658661         0.6854325553       0.002263848569        0.04416447899      1.298569057e-07         0.7446847829         0.6719639575         0.5895797413         0.1707342455         0.0820278157      5.999020134e-05       4.21935724e-05      1.650326909e-18 
29 2          2.704177043          3.925666013          2.389031785          3.395532139         0.9483275346          0.990935654      0.0009480976768       3.53662203e-05      3.767430529e-16        1.2317346e-22      2.130626462e-31      2.856651739e-44         0.8645602618         0.8001721523         0.5959286974         0.3034612415         0.1685242889       0.006306865186       0.005812596547      4.077957793e-09          4.029151367          3.577072925          3.258339315         0.8528329398         0.7462104005       0.004742155577        0.02284095576      4.316188225e-05          1.436019529          1.322520315          1.072611576         0.4016694449         0.1052513975       0.000480742646      0.0001920584168      7.280732845e-12 
30 2          2.263001802          3.218203168          2.034858221          2.757880473         0.9002623448         0.7460736706      0.0009628446735      3.168582332e-05      1.098914127e-16       3.19004008e-22      9.291318606e-33      1.920323786e-43          1.100795573           1.01927149         0.8042600808         0.3280588994        0.08398214121      7.831412027e-05      0.0001853640441      9.303296883e-25          3.251816554          2.884684264          2.614070242         0.7066545708         0.6698778668       0.003084211907         0.0168941593      2.093433892e-11          1.009410831         0.9107922963         0.8003555112         0.2301257297         0.1085626044      0.0001716118533      3.986235204e-06      2.662871225e-16 
31 2          2.722992422          3.727790017          2.411511258          3.218147116         0.9620204324         0.9062644418        0.00105174444      9.708906433e-06      5.886563591e-16      2.052548913e-26      4.575854762e-31      4.537118001e-52          1.124756768          1.033669245         0.8112707407          0.349877573         0.1816617067       0.001582376511        0.00274198656      4.070860065e-12           3.94997761          3.498489626          3.205973058         0.8230290904         0.7647686711       0.004567059989        0.03203732274      1.405935935e-05          1.245576281          1.140366052          0.947733703         0.3288249918         0.1017851509      0.0003772565899      1.861634623e-05      9.609733518e-15 
32 2          2.294962375          3.241035303          2.059057847          2.777589651         0.8930520886         0.7602359922       0.000847762064       1.82064886e-05      6.757391454e-17      2.009791349e-24      5.078252251e-33      7.900665273e-48          1.184837914          1.086530749         0.8909869864         0.3246522968          0.113339701       5.53749358e-05      1.344325113e-05      6.221245064e-21          3.237349353          2.873024528           2.59807605         0.7087215521         0.6645424944       0.005917643584        0.02296799145      3.510032402e-12         0.9371287502         0.8507374014         0.7296085905          0.228777427        0.09368103668      0.0004974158655      0.0002227608424      4.551726346e-13 
33 2          2.763732165          3.771751013          2.431755396          3.263996609         0.8999218571          0.973879334      0.0003892804225      7.343771419e-05      3.349310632e-18      2.383902906e-21      1.600208732e-35       9.28053393e-42         0.9602294534         0.8748297131          0.703644298         0.2872802865         0.1811756724       0.002500515955       0.005710337638      6.725924175e-09          3.919175361            3.4790176          3.174892504         0.8233800399         0.7127684439       0.005767898181        0.02580195195      4.701708218e-06          1.251819204          1.158402181         0.9211265191          0.366548304        0.08661044773       0.003108255773       1.52943247e-05      4.338894213e-08 
34 2          2.423897867          3.162233146          2.188856238            2.6860776          1.003481198         0.6865109352       0.001655960074      2.733415817e-05       1.26017251e-15      1.396463638e-22      1.423851655e-30      3.723905959e-44           1.34887869          1.243322537         0.9923048318         0.3948400638         0.1360529269      0.0001770160349       1.31266155e-05      2.711682161e-22          3.349296312          2.961527687          2.711043212          0.707246874         0.7069486157       0.005789622667        0.03538115252      5.335202436e-10         0.8515932289         0.7696878666         0.6676610956         0.2028525058          0.101626667      0.0002462027571      0.0004512942547       1.76479338e-15 
35 2          2.782486814          3.974453199          2.445977595          3.460117571         0.8940217453          1.070629445      0.0003435363353      4.713197834e-05      7.750389976e-19      1.252213717e-22      5.165355564e-37      2.857472974e-44           0.92424358         0.8472748487         0.6686072947         0.2863301013         0.1534989685       0.002628412828       0.006020836138       4.11891117e-08          4.213263237          3.736446062           3.41867857         0.8792177307         0.7747575797         0.0057050135        0.03500528958      5.826452963e-06           1.51229685          1.404357892          1.101313901         0.4551053925        0.09067695924       0.001603997335      4.115080667e-05      1.034534101e-07 
36 2          2.214920255          2.926768824          1.994524595          2.469191852         0.8793001451         0.5797699302      0.0008046744534      2.848310097e-06      5.271314353e-17      9.118223446e-28      3.277925899e-33      1.894004916e-54          1.074609235         0.9929148833         0.7870529713         0.3182048561        0.09480961366      0.0001364864825      0.0001300972594       5.35002593e-22          2.765089326          2.427708452          2.273237032         0.5437416675         0.6295707206       0.002663951332        0.03098720641      1.929845914e-10         0.7213948698         0.6456070387         0.5812487948         0.1542335949        0.09934725916      8.352486415e-05      3.358794656e-05      3.635235279e-16 
37 2          2.665189337          3.412529671          2.354117776            2.9260108         0.9180251102         0.7920094848      0.0006573981532      1.459778023e-05      2.525985134e-17      2.219715737e-24       7.36923077e-34      9.983886988e-48         0.9857455881         0.9079398841         0.7067701974         0.3120166348         0.1559291716       0.002455509296       0.002379267908      1.656805489e-13          3.483059602          3.073950896          2.849013772         0.7005818211         0.7038609484       0.002935473977        0.03150965864      2.064224596e-06         0.9786651771         0.8990064008         0.7372722944         0.2666013715        0.07467608636      0.0002816118271      6.446326609e-06      1.292987301e-14 
38 2          2.414257031          3.229727527          2.158855674          2.754595193         0.8991988603         0.7063554159      0.0008359767786      6.206986833e-06      4.096537522e-16      8.620891364e-27      2.599294389e-31      1.275622286e-52          1.096767676          1.007422379         0.8068469842         0.3223215681          0.141654502       0.001326546624      0.0006441977888      1.707291623e-18           3.23979638          2.854383182          2.646832687         0.6556213271         0.6994564452       0.002479321866        0.03479627458      1.993259282e-08         0.9534014093          0.861735087         0.7515502795         0.2223363375         0.1023394873      0.0001557324748      5.760408635e-06      1.011658907e-13 