ITEM: TIMESTEP
0
ITEM: NUMBER OF ATOMS
54
ITEM: BOX BOUNDS xy xz yz pp pp pp
-2.6732977382222696e-02 1.9174382766165152e+01 2.9506541316800546e-05
0.0000000000000000e+00 1.1540010645371973e+01 -2.6732977382222696e-02
0.0000000000000000e+00 2.9999991154072013e+01 1.9850802815995338e-05
ITEM: ATOMS id type c_1[1] c_1[2] c_1[3] c_1[4] c_1[5] c_1[6] c_1[7] c_1[8] c_1[9] c_1[10] c_1[11] c_1[12] c_1[13] c_1[14] c_1[15] c_1[16] c_1[17] c_1[18] c_1[19] c_1[20] c_1[21] c_1[22] c_1[23] c_1[24] c_1[25] c_1[26] c_1[27] c_1[28] c_1[29] c_1[30] c_1[31] c_1[32] c_1[33] c_1[34] c_1[35] c_1[36] 
1 1          2.419735102           5.03330577          2.145360997          4.466721736         0.7885388717          1.804763324      0.0002174687909       0.001758850888      6.491225844e-19      1.988822076e-16      6.932158862e-37      1.598236627e-32         0.8088508356         0.7355774323         0.6252846526         0.2030787939         0.0825965134      0.0009978668406      0.0003354008385      3.706269585e-15          4.588898402           4.17670356           3.47197526          1.249806856         0.6955710416        0.04289471781       0.008120889407      1.654614488e-05          3.243060623          3.120273746          2.069171329          1.323642976         0.1611086501        0.06534371037       0.000923049931       0.001910558189 
2 1          2.496172595          4.945766449          2.205172369          4.393636976         0.8045875976          1.791740323      0.0003367576546       0.001573304446      2.156806521e-18      1.907611221e-16      4.550845918e-36      3.114083373e-32         0.7901419626         0.7181020315         0.6039694246         0.2061102198         0.1007116477       0.002313763217         0.0017416991      1.367039294e-10          4.597954801          4.191840284          3.465058024          1.270045151         0.6825735642        0.05138282695       0.007280730356      1.997097029e-05          3.133908643          3.024479249          1.975992126           1.30466836         0.1357794425        0.05841621082      0.0001443904535       0.002392681334 
3 1          1.987866857          5.054619712          1.735816072          4.506804718         0.5861305016          1.862528603      0.0001828322146       0.001756287179      1.329432438e-18      1.088859516e-15      2.966406357e-36      1.530887433e-30         0.3803072836         0.3439937055         0.2930862509        0.09697477188        0.05868010743        0.00133539659      0.0003526792364      2.356459112e-09          3.743984065          3.378539079           2.90140472         0.9408762641         0.6183784787        0.02638595237       0.004252454475      1.860456885e-06          3.451774955          3.321647714          2.195864532          1.414673493         0.1695955214        0.05653269961      0.0002390792532        0.00248795106 
4 1          2.009690762           5.06695171          1.745531853          4.528359588         0.5578685643          1.891165302      0.0001856285798       0.001809152893      1.329433986e-18      1.168046827e-15      2.966406357e-36       1.20304781e-30         0.3197171615         0.2868618887         0.2485561576        0.07923604059        0.06423538627      0.0002715060628      7.834638436e-05      1.538612575e-17          3.788605845          3.408934171          2.964099005         0.9195461569         0.6402231392        0.02964301445       0.003149976284      6.544869267e-07          3.550620679          3.416089728          2.259994418          1.453593182         0.1746332547        0.06085548143       0.000832350843      0.0002075213482 
5 1          2.184083768          5.166280653          1.915202389          4.589325853         0.6926422953          1.827138657      0.0007999357705       0.001892312311      1.630813441e-15      1.876436395e-15      4.054018003e-30      4.219426737e-30         0.5529180806         0.4962709167         0.4294242499         0.1370747053         0.1050976128      0.0002812834965      0.0009454768279      1.918820243e-27          4.138793403           3.76041534          3.154596657          1.102724335         0.6352465954        0.04744694562       0.003552894082      2.223847821e-05          3.439625296          3.292512997          2.234737822          1.354863989         0.1830995305        0.05671828025      0.0001056523553      1.963137621e-05 
6 1          2.642473831          5.027777139          2.363861946          4.421579359         0.9653731265          1.643476107        0.00103021319       0.001094718822      1.632340669e-15      9.913411934e-17      4.054021861e-30      6.605475837e-33         0.8707586021         0.8148113109         0.6165164273         0.2852133737         0.0636493195        0.01337659433      0.0004942454179      6.483689878e-06          5.151349556          4.691506007          3.875356146          1.426698068          0.792662542        0.03889549555        0.01651989363      1.050540019e-06          2.823995276          2.692412691           1.85961898          1.082727079         0.1637431595        0.03368992009      0.0001085029541       0.001141919577 
7 1          2.337911436          5.010721856          2.049556237          4.430089054          0.704838038          1.720215203      0.0007315683022       0.001972209061      1.126450825e-15      2.507098841e-14        1.9437619e-30      9.234328005e-28         0.5455510612         0.4918214393         0.4278058483         0.1299828931        0.07496078796      0.0008999683756      0.0009174810793      1.160721568e-08          4.268990555          3.856606826          3.298002507          1.082387781         0.6892668416        0.02034740695       0.005458536435      1.660676071e-05          2.981103231          2.859609113          1.915507968          1.199871767         0.1697359226        0.04246800147      0.0009438562209       0.009611904214 
8 1          1.901510396          4.910281941          1.619547186          4.367083042         0.4153699715          1.760709814      1.196309989e-05       0.001363763731      3.818880976e-24      2.356436034e-16      2.934643343e-47      7.595842398e-32         0.2951262541         0.2577934864         0.2481203937        0.05171943174        0.06699986198      2.533074383e-05      0.0002318429085      1.344435203e-15          2.970063575          2.638047371          2.399804181         0.6315047708          0.570189471       0.006231295426       0.002709688704      6.534818644e-08          3.072442484          2.959167834          1.946168682          1.268889278         0.1578150259        0.05012193603      0.0004696621513        0.00758687094 
9 1          2.104517457           4.93250877          1.850392898          4.372988882         0.6514779419          1.759610322      0.0001196353691       0.002112688312      5.166115859e-20      2.810658857e-15      4.678450171e-39      8.348290539e-30         0.5013854257         0.4564755781         0.3842164925         0.1297507422        0.05691746057       0.001014650079      0.0003240405274      7.013917351e-12          3.837065941          3.474274275          2.944643092         0.9960647056         0.6083387033        0.02629548637       0.006568109297      0.0003881570885          3.070729219          2.956767351          1.943280363          1.269555879         0.1527083591        0.04382561339       0.001037129184      0.0006877050473 
10 1           2.45847567          4.935771786          2.172299703          4.376095132         0.8078695055          1.718250172      0.0009239428131       0.001014853355      2.155163198e-15       2.21609701e-17       7.05351599e-30      3.251460037e-34         0.7402766802         0.6776434974         0.5608256123         0.1983355255         0.0683464203       0.001079236425      0.0002027229353      1.038946912e-12          4.595616572          4.167099053          3.506334621          1.221349128         0.7672902145        0.05266061684       0.009491495713      7.573078569e-06          2.969448284          2.852402514          1.904906168          1.195524552         0.1353348663        0.04370161815      0.0002809301755      0.0006936834893 
11 1          2.567712402           5.03745001          2.291946339          4.476218264          0.908740758          1.810507549      0.0008918904825       0.001519588222       2.15511223e-15      2.580879542e-16      7.053515985e-30      6.971906257e-32         0.8501930174         0.7841480284         0.6293534589         0.2455699498         0.0748920645       0.004394192643      6.374085955e-05      1.957020328e-08          5.153337011           4.71364902          3.844812878          1.467186679         0.7369607289        0.05375617387       0.009517584746      8.556924878e-07          3.243122527          3.126260679          2.057451218          1.335804651         0.1430778182        0.06347544747      0.0002061270837       0.002601509201 
12 1          2.301645968           5.07648494          2.032401844          4.530573205         0.7495083063          1.880532671      0.0007635088193        0.00212870804      1.126451438e-15      2.481785701e-15        1.9437619e-30      5.263943064e-30         0.6117529075         0.5626619148         0.4527266029         0.1764312589        0.06554926914       0.001046774009      0.0003685361115      5.960260639e-16          4.511475588          4.109013143           3.40992571          1.233349438         0.6819477603        0.04654967285        0.00333442368      7.295259495e-06          3.485373704          3.364117081          2.194817441          1.453749038         0.1459160448        0.06214570986      1.289806641e-05      2.837914059e-05 
13 1          2.197251399          5.060613841          1.935629252          4.504937094         0.7012951857          1.843167614      0.0003299313074       0.001544029929      1.058741322e-17      1.061344617e-16      1.826732764e-34      6.736779601e-33         0.5116467712         0.4691697121         0.3812765481         0.1446996527        0.05917414047      0.0007017478818      0.0001599506731      2.464509221e-08          4.296200422          3.898928962          3.277731301          1.140339117          0.671726392        0.04083343469       0.006854928016       3.47311066e-07          3.380625652          3.254472338          2.148219559          1.387913129         0.1637396088        0.05612145447      0.0002136844562       0.004086528948 
14 1          2.137552254          4.990768667          1.871693731           4.43871522         0.6387267688          1.800107881      0.0001477833156       0.001197679661      6.792936722e-20       9.73794739e-17      6.861392905e-39       9.24399501e-33         0.4833798625         0.4296882497         0.3878972647         0.1061303221         0.0987448317      0.0004397269788      0.0002609173456      1.164526491e-09          3.923568974          3.548530563          3.024574868          1.002202149         0.6200396872        0.02808223277       0.003665708033      5.241701046e-06          3.233800343           3.10804596          2.067814132          1.310972905         0.1507221071        0.04777686649      9.541786439e-05      1.170297406e-05 
15 1          2.311858602          4.824575942          2.049559654          4.286179815         0.7973670244          1.731575357       0.001207774393       0.001429017505      8.459386512e-15      2.045268491e-16      1.067247107e-28      3.564491733e-32         0.6171505513         0.5706864296         0.4492321892         0.1864365932        0.05981525311       0.001089778064      0.0001103702994      2.648830467e-08          4.321744563          3.948869318           3.23285424          1.224153574         0.6470914226        0.06008975507       0.009708177142      0.0003289030991           2.93763173           2.83570806          1.851037428          1.223152492         0.1173318307        0.04846580661      0.0002842482058       0.002355445419 
16 1          2.231491939          4.943031468          1.986165652          4.353273682         0.7913060595          1.649840094       0.001208422052       0.001346856507      8.459395066e-15      1.505550946e-16      1.067247107e-28      1.605372265e-32         0.6807024093         0.6261021076         0.5070975975         0.1924997901        0.06308053746       0.001652244999      0.0001601392588      1.262367676e-11          4.189027066          3.811865795          3.164561057           1.14748747         0.6491623446        0.04399047677        0.01672771652      4.904027831e-05          2.798311271          2.672342815          1.824127642          1.095581974         0.1800200302        0.03809929237       0.000656302276      4.667320698e-05 
17 1          2.449610125          4.949406069          2.172596466          4.391679138         0.7976381764          1.722848643      0.0002115464667       0.001105487338       2.28879606e-19       4.98155107e-17       5.19324975e-38      1.357331052e-33          0.741165506         0.6722222869         0.5730882869         0.1864018395        0.09439590962       0.002154820554      0.0004495339023      3.560645717e-11          4.646650732           4.20735268          3.569157256          1.204232091         0.7392489553        0.03702463832        0.01180798076      5.290496972e-07          3.024905517          2.896787854          1.962339241          1.193491094         0.1529469221         0.0401924366      0.0004631990139       0.003327005332 
18 1          2.293457643           5.14338358          2.021210852          4.582209756         0.7276188839          1.912746271      0.0003845245695       0.002415434709       1.07398091e-17      1.273681884e-15      1.827163675e-34      1.226407565e-30         0.6156183517         0.5612005022          0.469696548         0.1614003422        0.06854790371       0.000737120427      0.0004488446986      3.644026831e-13          4.424024152          4.031187915          3.334063573          1.222352652         0.6883599814        0.05333910273       0.005983850504      9.397638643e-05          3.599256035          3.477554153          2.256730467          1.513921861          0.161429921        0.07330644608        0.00056924753      0.0004228695036 
19 2          2.413424599          3.505413896          2.112407347          3.011909081         0.7723590689         0.8364906836      0.0005091923915      3.036119832e-05      8.242323601e-17      9.032259157e-23      1.077247691e-32      1.561273576e-44         0.6628642795         0.6047642092         0.4842189035          0.200431144         0.1285747426       0.003269998537       0.002611146005      2.478987831e-16          3.206612965          2.832680596          2.624025323         0.6433939491         0.6435069902       0.001980191846       0.007125368437      2.639974144e-06          1.122131899          1.029582907         0.8470444449         0.3038370649        0.09189748717      0.0004530280986      5.084935899e-06      1.790759492e-12 
20 2          2.345196117          3.098734228          2.097293321          2.640401529         0.8763503641         0.6836750146      0.0006265310433       8.99640131e-06      1.320252633e-17      4.100046958e-26      1.828090298e-34      2.472520523e-51          1.050648081         0.9685287708         0.7703513189         0.3109857794         0.1077341596      0.0006954500396       0.001016652172      7.439067553e-19          3.050924514          2.688653554          2.495303236         0.6145224259          0.652575898       0.003163257261        0.02820681234      1.102426164e-06         0.8531471076         0.7753340539         0.6608417392          0.212187299        0.08772928862       0.000155869941      8.403275535e-06       1.82949514e-20 
21 2          2.482340939           3.11141365          2.190405476          2.655948086         0.8531681495         0.6713290271      0.0007071592574      2.000267522e-06      6.068236169e-17      4.631422945e-30      3.057568207e-33       2.52777517e-59          1.151835838          1.041389078         0.8800251739         0.3007525257         0.1893908441      9.402667767e-05       0.003880815054      1.198889029e-21          2.904017047          2.559352383          2.376247918         0.5836656588         0.6267396192       0.003060680898        0.01975785077        8.4414705e-11         0.7793043864         0.7077742816          0.608235379         0.1883280755         0.0700623939      5.005964847e-05      2.612185647e-06      8.642145725e-19 
22 2           2.49452861          3.224362727          2.245113548          2.753608617         0.9957128453         0.7144465997       0.001440629561      6.010022201e-06      1.089548095e-15      8.118881997e-27      1.528529988e-30      1.408692495e-52          1.370561499          1.264507911          1.002311948         0.4079500689         0.1444290213      0.0002663069961      7.445973959e-05      3.569153094e-20          3.354054684          2.968094346           2.71231805         0.7113179889          0.699046315       0.006646668345         0.0339292688      2.453509158e-09         0.8890062899         0.8040674922         0.6988014487         0.2095058734        0.09662193069      0.0001700810914      9.490378908e-06      4.361082921e-15 
23 2          2.408187346          3.672902478          2.127711185          3.158344777         0.8064934009         0.8946672269      0.0003558995376      3.377922096e-05      6.781984259e-18      1.121065336e-22      7.392142902e-35      2.403691825e-44         0.7483693609         0.6872501026         0.5437047024         0.2282767783         0.1004343329       0.001484275214       0.009908190402      8.359285636e-21          3.412348217          3.023163926           2.78012131         0.6980302121         0.6187895136       0.001796370028         0.0243309853      1.234504581e-06          1.207848671          1.109602784         0.9072862923         0.3322160404         0.0994293635      0.0003913840214      2.069723154e-05      4.983848783e-10 
24 2          2.315316498          3.128368079          2.056180158          2.684151581         0.8446464676          0.737080605       0.001010221604      1.399688295e-05      8.302575117e-16      2.664796051e-25      1.010787761e-30      8.755786971e-50         0.9907521397         0.9041453449         0.7426225805         0.2752313001         0.1379745357      0.0004128759655      0.0007240167229      3.944561655e-26          3.055470342          2.708376486            2.4628373         0.6564544624         0.6189017954       0.004380637117        0.02156359726      1.721373324e-07         0.8734520009         0.7945807946         0.6766174419         0.2171820432        0.08260227438      0.0004056490302       2.24220437e-05      2.386856177e-14 
25 2          2.822505711          3.777673776          2.493536518          3.256590055         0.9708952541         0.9344534411      0.0007451142243      3.020620452e-05      1.369479091e-16      4.309544893e-23      2.909425225e-32      3.594482587e-45         0.9661749016         0.8903047332         0.6839844389         0.3179584131         0.1666853144        0.00884208852        0.01146152828      1.915969194e-07          3.942037552          3.500896195           3.18594343         0.8364150747         0.7272281061       0.003954565646        0.01935289797       3.27407754e-05          1.253549872          1.159320678         0.9235904903         0.3648461366         0.0861223746      0.0004237104641      7.651123187e-05      1.049619741e-14 
26 2          2.296711937          3.433665902          2.066818529           2.95176527          0.919259862         0.8322673588       0.001190164761      3.696977304e-05      5.504405478e-16      1.129404689e-22       2.54449508e-31      2.403860027e-44         0.9611523203         0.8935176768         0.6817783992         0.3111976137          0.101732678       0.002130056518      0.0008132219336      1.906898079e-18          3.408629721          3.041818575          2.717645414         0.7653158497          0.619085801       0.004816815387       0.006232828773      3.944315388e-13          1.068405892         0.9779699587         0.8119177535         0.2834334477        0.09325144127      0.0006659639496      2.790233125e-06      3.537859534e-16 
27 2          2.406733217          3.532763655          2.105884243          3.049756009         0.7667349726          0.868063869      0.0004468462421       1.98869588e-05      5.411716263e-17      7.371816742e-24      4.672864359e-33      1.080266546e-46          0.801494178         0.7242859775         0.6023579981         0.2219107547         0.1634153193      0.0007853354707       0.003631872943      3.171825747e-23          3.276278158          2.889856052           2.68659846         0.6523427456         0.6668541948       0.006849727569        0.02628243499      1.279669256e-06          1.180831212          1.083042921         0.8929973503         0.3179429453        0.09506384793      0.0003126901211      4.411605122e-06      4.422466014e-15 
28 2          2.528589673          2.869767629          2.272096268          2.418577103         0.9687518658          0.571971566      0.0009336245196      3.525667752e-06      8.617964387e-17      2.757761434e-28      5.885439858e-33      8.483630067e-56          1.595731186          1.455034746          1.229041957         0.4040390655         0.1406245646      8.456963938e-05      5.078961021e-06       4.03266113e-24           2.82210452          2.484867669          2.295529541         0.5834023113         0.6568575486       0.002970945409        0.02312267647      2.373691712e-15         0.5880025365         0.5288927075         0.4678456652         0.1323335226         0.0741615922      0.0001151843661      3.948013003e-06      1.213092378e-17 
29 2          2.772672458          3.474603995          2.421203694          2.988353674         0.8164646169         0.8111696045      0.0001384292748      7.588763279e-06      2.760260608e-20      2.171459815e-26      1.286360689e-39      6.835456291e-52         0.9913764703         0.8931723625         0.7582403127         0.2594746245         0.1854823397       0.001147265164       0.006355109174      4.093272121e-12          3.553560772          3.122404852          2.951466974         0.6639469133         0.7409135795        0.00154902453        0.01128875353       4.04900427e-07           1.03951573         0.9526215693         0.7884137934         0.2772323511        0.08380639059      0.0002585080881      1.712793143e-05      9.246347912e-16 
30 2          2.459267909           3.12765281          2.212728409          2.667150243         0.9747525411         0.6913646031       0.001326411243      6.792254951e-06      1.671540682e-15      1.131480657e-26      4.157461068e-30      1.655267569e-52          1.444110443           1.32170965          1.092336895         0.3885119522         0.1407110103      9.614952026e-05      0.0001001844153      1.363426686e-29          3.144510546          2.789938677          2.523370206         0.6891431657         0.6565077491       0.005590720702        0.01668623328       1.05297996e-11         0.8179665663          0.741508877         0.6399783843         0.1960462082         0.0818046829      0.0002095229583       1.65805084e-05      2.587874942e-14 
31 2          2.549915114          3.554965031          2.221539531          3.079491237         0.7512513288         0.9049410677      0.0001935945704      3.030154797e-05      2.746553696e-19      4.318780164e-23      1.211783681e-37      3.594531335e-45         0.7339734809          0.667977367         0.5428586333         0.2129329079         0.1317700475      0.0008905708656       0.004451646041      1.610709311e-12          3.308883843          2.916879563          2.722675986         0.6480152339         0.6732168419       0.004137983476        0.01638801622      4.384907888e-08          1.141930599          1.054743125         0.8479021499         0.3249690111        0.07152866698      0.0009021311093      1.409978877e-06      1.929657071e-09 
32 2          2.260602329          3.133230304          2.033195094          2.655639563         0.8820580674         0.6491454214      0.0008108321451      5.484704705e-06      1.247551682e-16      3.392490429e-26      2.075558657e-32      2.483168442e-51          1.082363247          1.000803566          0.791021485         0.3226024561        0.09584845459      0.0002307730956      2.054830734e-05      9.074989266e-20          2.819357437          2.490485923          2.290803844         0.5848621661         0.5967826954       0.003038238179        0.02365825301      1.027787629e-10         0.7927089436         0.7147588999         0.6283101606         0.1809639307        0.09071796373      9.533250723e-05      1.336921941e-05      1.394469008e-16 
33 2          2.623564394          3.704536419           2.31337077          3.199494937         0.8981198973         0.9239382365      0.0006345872963      8.948897024e-05      2.056909676e-17      4.456073412e-20      5.479437694e-34       3.49364765e-39         0.7872931526          0.728014003         0.5437841313         0.2746267831         0.1561387889       0.005453360931       0.004524453557      8.185798481e-15          3.724818889          3.306520552          3.013410028         0.7864248539         0.6864967916       0.003555310803        0.02282695522      1.993542061e-06          1.233191587          1.137797091         0.9174940205         0.3490239016        0.08345966481      0.0009406199321        6.3036078e-06      5.353764826e-12 
34 2          2.332532327           3.16596118          2.070721633           2.68964444         0.8076429901         0.6546004283      0.0006040737535      1.596871344e-06      2.199798736e-16      3.453816505e-30       7.57576814e-32      2.024975827e-59         0.8132077203         0.7531644652          0.584068002         0.2546905324        0.09028346986      0.0007441605207      0.0009757502089      1.381621186e-14          2.828827852          2.485153762          2.334768923         0.5455285543         0.6079286607       0.002166366517        0.02946538951      1.706209267e-09         0.8083662457         0.7337135356         0.6304719867         0.1959692723        0.07807698856      8.184587208e-05      7.956880432e-05      1.183090919e-20 
35 2          2.773240374          3.811478347          2.456105516          3.296876832          1.012156309         0.9562293156       0.001444088248       1.66503481e-05      2.361287583e-15      8.886997098e-26       8.10023081e-30      6.863915498e-51          1.142907251          1.051481849         0.8214703147         0.3606689883          0.188581853       0.005258055665       0.003233202827      5.834160888e-10          3.949183761          3.525066944          3.139732619         0.8979770573         0.7103839861        0.01061165795        0.02963368341      2.655606551e-05          1.299345977          1.193532964         0.9785517934         0.3545764426         0.1008997034      0.0007078018574      4.388405691e-06      1.565229798e-10 
36 2          2.455200904          3.146706323          2.206746666          2.686063901         0.9434546194         0.6934429045       0.001000025878      6.076482544e-06      7.798370142e-16       3.16372784e-26        9.3148827e-31      2.154036208e-51          1.423461789          1.297003275          1.087354692         0.3714010241             0.162214      0.0001987113611      9.989246185e-06      5.428193603e-24          3.256334139          2.882395842            2.6379166          0.684536191         0.6757313399        0.00293679081        0.01085106496      3.807660543e-11         0.8422420469         0.7622391148          0.661054937         0.1996012727         0.0896738763      0.0001182354917      2.347908015e-05      2.229929794e-15 
37 2          2.660840607          3.391524955          2.337637658           2.90740748         0.8625017231         0.7685223977      0.0004920809503      8.734524233e-06      9.890599288e-18      1.136002347e-25      1.007456902e-34      2.670781538e-50         0.8619631463          0.785896142         0.6228681849         0.2681839237         0.1689966456       0.003240156195        0.02176141694      4.431584305e-14          3.288615257          2.899224886          2.705311877         0.6438186811         0.6648014038       0.001289611057        0.01648346263      6.658472592e-10         0.9531984768         0.8762074481         0.7177062782         0.2598922871        0.06796638993      0.0001664244375      2.379023648e-05      1.715361962e-18 
38 2          2.237383551          2.669431042          2.015579755          2.243972115         0.8973217844         0.5030649511       0.001007774214      1.385515219e-06      3.923912613e-16      4.718626034e-29      2.310883252e-31      5.312895379e-57          1.260690773          1.150936329         0.9656198381         0.3251960176         0.1134863733      2.368152689e-05      7.914854637e-05      1.474476811e-27          2.536940309          2.224397845          2.087034724         0.4975426083         0.6069029205       0.001979905546        0.02284709406       1.95071587e-15         0.5641145552         0.5073952396         0.4508402564         0.1245578307        0.06489711736      1.091952345e-05      1.616781637e-06      8.790445627e-19 