ITEM: TIMESTEP
0
ITEM: NUMBER OF ENTRIES
4746
ITEM: BOX BOUNDS xy xz yz pp pp pp
-0.026733 19.1744 2.95065e-05
0 11.54 -0.026733
0 30 1.98508e-05
ITEM: ENTRIES c_2[1] c_2[2] c_2[3] c_2[4] c_2[5] c_2[6] c_2[7] c_2[8] c_2[9] c_2[10] c_2[11] c_2[12] c_2[13] c_2[14] c_2[15] c_2[16] c_2[17] c_2[18] c_2[19] c_2[20] c_2[21] c_2[22] c_2[23] c_2[24] c_2[25] c_2[26] c_2[27] c_2[28] c_2[29] c_2[30] c_2[31] c_2[32] c_2[33] c_2[34] c_2[35] c_2[36] c_2[37] c_2[38] c_2[39] 
                   0                   88        -0.5949175917                    0         0.5102335678                    0        0.09284649347                    0        0.02079023178                    0      1.452686556e-10                    0      2.457751154e-49                    0      2.481595726e-98                    0                    0                    0                    0                    0                    0                    0                    0        0.08953402504        0.07717649984        0.07588869386        0.01505543918        0.02834888331      7.639436006e-07     -2.015241327e-06     -9.790323837e-38         0.1523971591         0.1351472277         0.1263517271        0.02856185688        0.02173028629      5.631004659e-07       1.61334865e-08      1.181923651e-20 
                   1                   53          7.687569098                    0         0.6675401264                    0         0.1214713494                    0        0.02719992338                    0      1.900554233e-10                    0      3.215483299e-49                    0      3.246679225e-98                    0                    0                    0                    0                    0                    0                    0                    0        0.08841099979        0.07740968431        0.07327340568        0.01673199081        0.02200483833      8.247985707e-06      5.489529434e-06       9.58843378e-38         0.2057499549         0.1815759574         0.1725014173         0.0364378747        0.03179305541      2.040479354e-06     -1.243397467e-08      3.745828972e-20 
                   1                    2          2.355761959                    0         0.1661210133                    0        0.03022881001                    0       0.006768849776                    0      4.729633211e-11                    0      8.001906146e-50                    0      8.079538915e-99                    0                    0                    0                    0                    0                    0                    0                    0        0.03599803747         0.0297155281        0.03227955133       0.004107242868        0.01757330031      1.027675506e-06      1.553683696e-05     -8.385155692e-39         0.0559081895        0.04816097574        0.04812730842       0.008541198638        0.01596499742      7.912311779e-07      1.865237489e-07      1.496796109e-20 
                   0                    4          2.096365664        0.03438822316                    0       0.008842859425                    0       0.004818965872                    0      7.498045344e-08                    0      5.545899542e-32                    0      1.092164705e-62                    0        0.06480123998        0.04543125013        0.07365109148      -0.009707375665         0.0608247126      0.0002474242053      0.0005745306682     -1.345977541e-10      -0.008597839918      -0.001805499879       -0.01880997006        0.01146671962       -0.02020538228      0.0001583609161     -1.667126616e-06     -1.707857081e-08                    0                    0                    0                    0                    0                    0                    0                    0 
                   1                    5          7.625471986         0.8827869277                    0          0.227006806                    0          0.123708633                    0      1.924838158e-06                    0       1.42369892e-30                    0      2.803717772e-61                    0         0.2377575239         0.2100531963         0.1979181416        0.04399941112        0.04004220099      0.0009040024477      2.157417975e-05      2.021826377e-10         0.6581823127         0.5992735252         0.4979297829         0.1796751039           0.10324535       0.007041383823      1.579323945e-05      3.411736064e-08                    0                    0                    0                    0                    0                    0                    0                    0 
                   1                    1          3.244473935       0.008276055342                    0       0.002128170265                    0        0.00115975833                    0      1.804520052e-08                    0      1.334706109e-32                    0      2.628462511e-63                    0        0.01224570609       0.009789508948        0.01189858545      0.0003977154915       0.006322255071      7.387755694e-05      9.049289171e-05     -4.206141235e-11        0.02412015394        0.02242123687        0.01806170349       0.006511103951      -0.001426859625       4.24761765e-05     -3.907836351e-05      5.210077104e-08                    0                    0                    0                    0                    0                    0                    0                    0 
                   0                   25          2.768213077                    0        -0.0117483403                    0      -0.001266191922                    0     -3.905066626e-05                    0     -2.155595301e-20                    0     -5.159423941e-89                    0    -3.763002844e-175                    0                    0                    0                    0                    0                    0                    0                    0     -0.0005981227956     -0.0004640182526     -0.0005621631263     -3.935440191e-05     -0.0003804497268     -3.230902743e-12     -4.467722518e-05     -2.696563205e-87     -0.0006642836243     -0.0005454831347     -0.0006078314648     -6.177169303e-05     -0.0003036019037     -8.855617982e-11     -2.061337726e-06      2.592004835e-56 
                   1                   26          5.461674815                    0         0.1329659429                    0        0.01433056913                    0      0.0004419695487                    0      2.439670238e-19                    0       5.83935817e-88                    0     4.258909842e-174                    0                    0                    0                    0                    0                    0                    0                    0       0.007505281335        0.00596295417       0.007036854657      0.0005115785313       0.004222535036      8.862940183e-12      0.0002166884193      1.004356343e-87       0.007057561455        0.00575305151       0.006497152727      0.0006130934784       0.003415180688      2.445356713e-09      3.599537303e-05      3.939780131e-56 
                   1                    2          1.220605813                    0        0.04610152779                    0       0.004968649238                    0      0.0001532382728                    0      8.458746865e-20                    0      2.024603647e-88                    0     1.476635642e-174                    0                    0                    0                    0                    0                    0                    0                    0       0.002756750306       0.002159416494       0.002602374829       0.000168578288       0.001666391918      1.896536589e-12      0.0001438438487     -9.050398868e-88         0.0024255896       0.002008403709       0.002207278199      0.0002388330238       0.001026304376      6.716285926e-10      1.586451265e-07     -2.524244707e-56 
                   0                   28          6.194947491                    0        -0.4156490826                    0       -0.05763551415                    0      -0.005134765726                    0     -1.604524596e-14                    0     -9.621809805e-68                    0      -8.8912569e-135                    0                    0                    0                    0                    0                    0                    0                    0       -0.05731889454       -0.04260441667       -0.05483013553      -0.002722894584       -0.04120366884     -2.554953154e-07       -0.01342131792     -5.890981333e-35       -0.04431221228       -0.03916046859       -0.03681874614      -0.008231271349       -0.00740149753     -7.937454908e-07      1.147887008e-07     -4.600209775e-35 
                   1                   29          7.573593941                    0         0.4025948189                    0        0.05582535931                    0       0.004973498473                    0      1.554131396e-14                    0      9.319618251e-68                    0     8.612009773e-135                    0                    0                    0                    0                    0                    0                    0                    0        0.05058262142         0.0377982452        0.04813906075        0.00268115844        0.03662344832      4.294508789e-07        0.01012421839     -6.472983184e-36        0.04389189897        0.03874127242         0.0365140756       0.008101902315       0.007599656998      5.132149983e-07      2.749013899e-07      1.240176527e-33 
                   1                    2          2.418518139                    0        0.09060329612                    0         0.0125634045                    0       0.001119277581                    0      3.497546925e-15                    0      2.097364627e-68                    0     1.938118513e-135                    0                    0                    0                    0                    0                    0                    0                    0         0.0146809677       0.008775584704        0.01445704431      0.0002483185007        0.01459363131      1.063061229e-07        0.01694614945     -4.876439648e-36        0.01056838514       0.009485493379       0.008425073933       0.002357771693       0.001435819163      1.725533048e-07      3.251263864e-07     -4.289343253e-34 
                   0                   80        -0.5436760086                    0         0.6640457886                    0          0.240226047                    0         0.2386762414                    0      0.0007651638743                    0      8.450809724e-18                    0      8.598782264e-36                    0                    0                    0                    0                    0                    0                    0                    0         0.2414681189         0.2541833145         0.1008764246         0.1649427214       0.001758923225         0.0279560501     -3.071543599e-05      3.813950496e-08         0.7486968882         0.7414576419         0.4267551159         0.3643100381       0.005160360871        0.02378572774      -3.18085735e-06      1.348868586e-06 
                   1                   45          11.47446795                    0       -0.01750451206                    0      -0.006332454491                    0      -0.006291600997                    0     -2.017002516e-05                    0     -2.227667177e-19                    0     -2.266673329e-37                    0                    0                    0                    0                    0                    0                    0                    0       -0.02841039711        -0.0276882252       -0.01678081587       -0.01242076366       0.002021218015       0.004417908183      3.635661098e-05     -1.241844324e-07       -0.02548374661       -0.02269555398       -0.02043641861      -0.006234286948       -0.00626018372     -0.0008733645911     -1.430641107e-05      1.012406455e-07 
                   1                    2          2.473848566                    0         0.1920389956                    0        0.06947227069                    0        0.06902407401                    0       0.000221281882                    0      2.443935401e-18                    0      2.486728381e-36                    0                    0                    0                    0                    0                    0                    0                    0         0.1218361129         0.1058618216        0.09146972407        0.03646149861        0.07482926725       0.009601064812       0.000118766336      2.009682853e-08         0.2837124808          0.265828357         0.1981328986        0.09697732132        0.02129404889      0.0008822030003       7.23067277e-06      -2.66395047e-06 
                   0                   89         -3.793422369                    0        0.04608401559                    0        0.00475370588                    0      0.0001187812516                    0      1.061151742e-20                    0      2.742561311e-92                    0     5.677987083e-182                    0                    0                    0                    0                    0                    0                    0                    0       0.001059437285      0.0008386444152      0.0009985592172      6.649196879e-05      0.0006219852605      1.131079052e-10      1.934863598e-05      2.475434789e-53       0.002467184987       0.001941884878       0.002318343888      0.0001627412015       0.001473429315      2.451237851e-10      0.0001079911282      2.479063129e-48 
                   1                   54          9.540775062                    0        0.01420052132                    0       0.001464826814                    0      3.660175172e-05                    0      3.269877365e-21                    0      8.451043138e-93                    0      1.74963869e-182                    0                    0                    0                    0                    0                    0                    0                    0      0.0003278617685      0.0002603057165      0.0003087117925      2.091022257e-05      0.0001888451955      2.326499421e-11      5.097972981e-06      2.032308955e-53      0.0007579270138      0.0005927690333      0.0007137764122      4.828007788e-05      0.0004658396534      5.631017288e-11      4.351695105e-05      1.222434206e-48 
                   1                    2          2.054974551                    0        0.00935056617                    0      0.0009645392402                    0      2.410102373e-05                    0       2.15310438e-21                    0      5.564727961e-93                    0     1.152078291e-182                    0                    0                    0                    0                    0                    0                    0                    0      0.0002250940849      0.0001767825221       0.000212994801      1.321464014e-05      0.0001378334007      2.282956022e-11      5.975595895e-06      5.041623058e-54      0.0005052395384      0.0003991775722      0.0004739373242      3.421911482e-05      0.0002953166022      2.515233348e-11      1.926731715e-05      9.515117273e-49 
                   0                   29          2.550401939                    0       -0.07344064857                    0       -0.02596209782                    0       -0.02496089746                    0     -5.965557862e-05                    0     -1.807918315e-19                    0     -3.655132593e-38                    0                    0                    0                    0                    0                    0                    0                    0        0.05188461143        0.03576394811        0.06667919995       -0.01692236404        0.02700837208      -0.002682686762     -6.489457634e-08     -9.469676867e-12        -0.1196199396        -0.1114799715       -0.08670394988       -0.03686082351      -0.008495618673      -0.005187163771     -5.886205862e-07       0.001734108964 
                   1                   30          9.313409994                    0         0.4994525374                    0         0.1765621067                    0         0.1697531792                    0      0.0004057035265                    0      1.229522625e-18                    0      2.485769507e-37                    0                    0                    0                    0                    0                    0                    0                    0         0.1843300313           0.19359705        0.08593135894         0.1106577245       -0.04814498328       0.002754063042     -2.725503733e-07      5.583154847e-11         0.4563407199         0.4679366442          0.219505327         0.2713287389       -0.00433662859        0.02640929274     -1.765296531e-05      0.0002983346977 
                   1                    2           1.20767089                    0         0.4957704505                    0         0.1752604475                    0          0.168501717                    0      0.0004027125803                    0      1.220458281e-18                    0      2.467443803e-37                    0                    0                    0                    0                    0                    0                    0                    0          0.418269844         0.3631060093         0.3565461866        0.06946873061         0.1093342245       0.003825685131      2.856683479e-07      4.485064264e-11         0.5017544208         0.5082284877         0.2545415551         0.2832976013       0.009532081478        0.02372822486      1.753502312e-05       0.001407141645 
                   0                  136         -3.783529829                    0        0.02410116271                    0       0.002459332542                    0      5.825234749e-05                    0       3.17778599e-21                    0      1.301179309e-93                    0     3.288398245e-184                    0                    0                    0                    0                    0                    0                    0                    0      0.0005453597111      0.0004263831795      0.0005174083236      3.052187378e-05      0.0003417908259      8.128958781e-12      1.740059792e-05      4.775070726e-54       0.001165975232      0.0009046088303       0.001103265178      6.857958109e-05       0.000748003264      4.451448579e-11       7.80246633e-05      7.239506724e-68 
                   1                   46          13.43380566                    0      -0.008128965712                    0     -0.0008294964916                    0     -1.964765523e-05                    0     -1.071820213e-21                    0     -4.388685357e-94                    0    -1.109128091e-184                    0                    0                    0                    0                    0                    0                    0                    0     -0.0001845181776      -0.000144531602       -0.00017492204     -1.047783128e-05     -0.0001144800216     -1.294083847e-12     -5.487512458e-06     -1.782401733e-54     -0.0003931098517     -0.0003038834705     -0.0003724156544     -2.263308823e-05     -0.0002558457773     -1.611300274e-11     -2.992428108e-05      6.603091915e-69 
                   1                    2          2.118222546                    0       0.004645293438                    0        0.00047401536                    0      1.122764287e-05                    0      6.124911311e-22                    0      2.507912078e-94                    0     6.338106993e-185                    0                    0                    0                    0                    0                    0                    0                    0      0.0001077473526      8.384058965e-05      0.0001024288657      5.807600689e-06      6.901622336e-05      1.517640801e-12      4.250654603e-06      9.223142323e-55       0.000225817392      0.0001756903992       0.000213398013      1.358088734e-05      0.0001429726963      7.432523711e-12      1.391876748e-05      2.590516398e-68 
                   0                  103          2.938102105                    0        -0.1603847657                    0        -0.0653119772                    0       -0.07560878504                    0     -0.0009536338178                    0      -4.39222155e-15                    0      -8.40443321e-30                    0                    0                    0                    0                    0                    0                    0                    0       0.009273774429      -0.005133634903        0.04285590641       -0.04018185076       0.006750958175      -0.007637521238     -1.783070283e-06      -2.76076226e-08        -0.2335358862        -0.2349296911        -0.1224891641        -0.1246651375       0.009423135954        -0.0139786774      -0.000446988487        0.01637116964 
                   1                   22          13.36726183                    0          -0.45397299                    0        -0.1848671439                    0        -0.2140125096                    0      -0.002699283773                    0     -1.243229019e-14                    0     -2.378895312e-29                    0                    0                    0                    0                    0                    0                    0                    0        -0.2496933146        -0.2657161223        -0.1034845316        -0.1650594549        0.05802020361      -0.003416520969       3.67639393e-06       3.43803753e-08        -0.5186788779        -0.5417827545        -0.2323436044        -0.3334364142       0.002004395114       -0.04789146607      0.0006952548801       -0.01105187004 
                   1                    2          1.677836598                    0         0.3698790062                    0         0.1506223432                    0         0.1743688195                    0       0.002199268286                    0      1.012933201e-14                    0      1.938228602e-29                    0                    0                    0                    0                    0                    0                    0                    0         0.3911270783         0.3402699118         0.3237587342        0.07736912094         0.1275553432       0.006059552808      3.958829259e-06      7.621574387e-08         0.5004024294         0.5066662294         0.2610902163         0.2773893497        0.01339993071        0.03509262461      0.0006309428027         0.0085843303 
                   0                  102           6.13042734                    0        -0.8740734485                    0        -0.2055829716                    0       -0.09165574295                    0     -2.452751396e-07                    0     -8.039449332e-35                    0     -1.022350787e-69                    0                    0                    0                    0                    0                    0                    0                    0        -0.3188621726        -0.2859724384        -0.2567904172       -0.06832478839        -0.0384491282     -3.239602236e-05      5.399880676e-06     -6.710809217e-29        -0.3672876803        -0.3458529568         -0.256133223        -0.1234671693       -0.01357273241      -0.001229992539      1.367595797e-07      -8.15630285e-11 
                   1                   21          11.62299618                    0       -0.04992096895                    0        -0.0117414631                    0      -0.005234735715                    0     -1.400840244e-08                    0     -4.591571809e-36                    0     -5.838953461e-71                    0                    0                    0                    0                    0                    0                    0                    0       -0.02513159628       -0.02228520219       -0.02193006346      -0.003492888739     -1.567379955e-05     -1.178872033e-06      6.053119865e-06      3.623593898e-28       -0.01282156438       -0.01413119161      -0.003646983392       -0.01015770374       0.002230628497     -0.0001247425884     -4.567869547e-07      2.118649753e-11 
                   1                    2          2.255685889                    0         0.2303097278                    0         0.0541690842                    0        0.02415038375                    0      6.462757874e-08                    0      2.118315561e-35                    0      2.693793431e-70                    0                    0                    0                    0                    0                    0                    0                    0         0.1283578048         0.1088739237         0.1154074165        0.01417073407        0.03769589382      8.637815439e-06      3.509882777e-05      2.488999802e-29         0.1070592755         0.1001207811        0.07500140312        0.03569888829       0.009494785895      0.0004334199084      7.086953157e-07      4.830392675e-12 
                   0                  138        -0.6928822282                    0         0.4503396049                    0        0.07369301502                    0        0.01179866267                    0      4.809156555e-12                    0      3.571449704e-56                    0      7.35339446e-112                    0                    0                    0                    0                    0                    0                    0                    0        0.04607358947        0.03918015648        0.04033717802       0.006319030933        0.01580768048       1.76192837e-06     -4.185888607e-06     -3.469915844e-35         0.1043189796        0.09232804967         0.0868437064        0.01915643104        0.01545300408      2.866259473e-09       1.25334581e-07     -2.309945156e-56 
                   1                   49          15.42544219                    0        -0.6172236537                    0         -0.101001714                    0       -0.01617093768                    0      -6.59130387e-12                    0     -4.894935314e-56                    0    -1.007836963e-111                    0                    0                    0                    0                    0                    0                    0                    0         -0.052134213       -0.04452143677       -0.04553992943      -0.007254927205       -0.01623453844     -3.412803625e-06     -6.157299966e-06     -4.142374942e-35         -0.143501751         -0.126691022        -0.1200233578       -0.02573814463       -0.02264629256     -3.105412828e-08      6.307651034e-08     -2.860471131e-56 
                   1                    2          2.298842621                    0         0.1504587588                    0        0.02462088489                    0       0.003941940976                    0      1.606742375e-12                    0        1.1932237e-56                    0     2.456773936e-112                    0                    0                    0                    0                    0                    0                    0                    0        0.02020454602        0.01654700562        0.01846758135       0.001913488588        0.01005257479      6.177005758e-07       8.78442109e-06     -1.050161202e-35        0.03957288071        0.03380934658        0.03452353148       0.005541275679        0.01250787289       1.59919731e-08      3.545348757e-07     -2.685940391e-56 
                   0                   91          2.233113258       0.002319342814                    0      0.0005444478182                    0      0.0002416164703                    0      6.210418296e-10                    0       1.70603971e-37                    0      1.739915032e-72                    0        0.03750389364        0.02778921654        0.04118409134      -0.004022391111        0.02672365385      0.0002282100002      5.585325135e-06     -9.891508616e-10       -0.01348469556         -0.010520136       -0.01461424448        0.00128070277       -0.00637459589     -9.748526793e-05      0.0001487012142      1.409786996e-11                    0                    0                    0                    0                    0                    0                    0                    0 
                   1                    3          15.43195952        -0.9055010073                    0        -0.2125593701                    0       -0.09433015071                    0     -2.424626488e-07                    0     -6.660596553e-35                    0     -6.792850133e-70                    0        -0.1635794199        -0.1463998306        -0.1324695752       -0.03452358145       -0.02200387546      -0.001178679806     -5.438793246e-07     -1.395950499e-09        -0.5657010849        -0.5025837485        -0.4540175063        -0.1240224058        -0.1191955593     -0.0009073255411     -0.0001088939015     -1.103929502e-10                    0                    0                    0                    0                    0                    0                    0                    0 
                   1                    1          3.231939844        0.01076668044                    0       0.002527395105                    0        0.00112161398                    0      2.882954119e-09                    0      7.919650455e-37                    0      8.076903955e-72                    0        0.01933687584        0.01534697046        0.01949465492     -0.0001957145283       0.009273065613      2.927045022e-05      1.025994535e-06     -5.079786244e-11        0.01490162053        0.01600726395       0.007510363768       0.008152820139      -0.008957412898      4.440604247e-06     -0.0005613358292     -1.810402487e-11                    0                    0                    0                    0                    0                    0                    0                    0 