ITEM: TIMESTEP
0
ITEM: NUMBER OF ENTRIES
4842
ITEM: BOX BOUNDS xy xz yz pp pp pp
-0.026733 19.1744 2.95065e-05
0 11.54 -0.026733
0 30 1.98508e-05
ITEM: ENTRIES c_2[1] c_2[2] c_2[3] c_2[4] c_2[5] c_2[6] c_2[7] c_2[8] c_2[9] c_2[10] c_2[11] c_2[12] c_2[13] c_2[14] c_2[15] c_2[16] c_2[17] c_2[18] c_2[19] c_2[20] c_2[21] c_2[22] c_2[23] c_2[24] c_2[25] c_2[26] c_2[27] c_2[28] c_2[29] c_2[30] c_2[31] c_2[32] c_2[33] c_2[34] c_2[35] c_2[36] c_2[37] c_2[38] c_2[39] 
                   0                  193        -0.4316394069                    0         0.1980843107                    0         0.0249600941                    0       0.001526013599                    0       2.21406161e-16                    0      3.109143551e-75                    0     2.765010745e-149                    0                    0                    0                    0                    0                    0                    0                    0       0.008927014801        0.00725527472       0.008181877156      0.0008178562875       0.004616489207      1.189215944e-08      3.090150056e-05     -4.341810269e-50        0.02505550753        0.02116988772        0.02248372039       0.002810073949       0.008134285369      3.423966479e-10      1.107201107e-06       9.79928172e-57 
                   1                   53         -4.439325481                    0         0.3846849356                    0        0.04847315851                    0       0.002963558502                    0      4.299765816e-16                    0      6.038038462e-75                    0     5.369723511e-149                    0                    0                    0                    0                    0                    0                    0                    0        0.01455805541        0.01193392055        0.01332217466       0.001355197468        0.00693724028      3.810556622e-08      2.464426835e-05       3.90296518e-50        0.04968124358        0.04193227409        0.04467408138        0.00546995661        0.01627838864      8.242486011e-10      2.760447185e-06      3.182688126e-57 
                   1                    2          2.533321822                    0        0.05548424807                    0       0.006991427276                    0      0.0004274428237                    0      6.201679637e-17                    0      8.708841779e-76                    0     7.744911323e-150                    0                    0                    0                    0                    0                    0                    0                    0        0.00294413539       0.002318741024       0.002768505386      0.0001927926114       0.001870586902      3.827497678e-09      2.763480173e-05     -8.081973005e-51       0.007664941357        0.00637910724       0.006937278606      0.0007955916618        0.00304056109     -8.111279571e-11      5.404908829e-06     -5.214314748e-58 
                   0                  155          3.026372549                    0       -0.01780269904                    0      -0.001917763571                    0     -5.900917106e-05                    0     -3.194809107e-20                    0     -7.099817904e-89                    0    -4.730496918e-175                    0                    0                    0                    0                    0                    0                    0                    0     -0.0006625941358     -0.0005357044367     -0.0006108951622     -5.652507824e-05     -0.0003320993042      -6.21443652e-12     -1.173197148e-05      4.226040333e-63        -0.0010980017     -0.0008243088641      -0.001040334102     -6.321193805e-05     -0.0007698299781      -5.68275567e-10     -0.0002311265241      2.566353487e-49 
                   1                   26         -5.245092029                    0         0.1325620392                    0        0.01428000604                    0      0.0004393927028                    0       2.37891125e-19                    0      5.286649723e-88                    0     3.522411498e-174                    0                    0                    0                    0                    0                    0                    0                    0       0.005385207216       0.004389605402       0.004976348343      0.0004464797198       0.002535461036      2.429955124e-11      4.093741823e-05      3.935123873e-63       0.007884025809       0.005906518084         0.0075053091      0.0004150021461       0.005646319552      3.483370414e-09       0.001528074631      2.836759116e-49 
                   1                    2          1.385212231                    0        0.04205004894                    0       0.004529765507                    0      0.0001393799067                    0      7.546152358e-20                    0      1.676979933e-88                    0     1.117345333e-174                    0                    0                    0                    0                    0                    0                    0                    0       0.001848383865       0.001488550555       0.001722262279      0.0001376919791      0.0009501159629       7.89015439e-12      2.843999989e-05     -5.553269174e-64       0.002516183915       0.001942888204       0.002376648616      0.0001527734372       0.001649952703      1.024921913e-09      0.0001969983987      1.264618385e-49 
                   0                  187        -0.6077656771                    0         0.6831745038                    0         0.2263914557                    0         0.1974015095                    0      0.0001972752436                    0      1.287700914e-20                    0      2.151253378e-41                    0                    0                    0                    0                    0                    0                    0                    0          0.175252193         0.1848774513        0.08140699491         0.1130017083      -0.001189053737        0.03036775759      7.228381447e-05       0.008039319031         0.7071404066         0.6926735126         0.4189389626         0.3267482146        0.02068320293        0.01620448455      -1.64733425e-05      1.839072367e-09 
                   1                   45        -0.3624512687                    0         0.2611238591                    0        0.08653164051                    0         0.0754510651                    0      7.540280357e-05                    0      4.921867404e-21                    0      8.222549009e-42                    0                    0                    0                    0                    0                    0                    0                    0         0.0834819336        0.07958297471        0.05242886385        0.03726618564        0.02830105365        0.01115658677     -0.0004132216312      -0.003215227271         0.2475612059         0.2532695381         0.1237406882         0.1396993686       -0.02130531588       0.008206804507      4.174911651e-05      5.398909221e-09 
                   1                    2           2.56545279                    0          0.171714892                    0        0.05690315452                    0        0.04961657483                    0      4.958483807e-05                    0      3.236617031e-21                    0      5.407143261e-42                    0                    0                    0                    0                    0                    0                    0                    0        0.08452117429        0.07441742499        0.06767104789        0.02142013442        0.04108954758       0.007878727846      0.0004155591402        0.00666008608         0.2523278581         0.2319654373         0.1835231956        0.07775044868        0.04046667782     -0.0004128518381      4.381331618e-06      -9.00294346e-09 
                   0                  158          2.492758531                    0       -0.06375201174                    0       -0.02304233608                    0       -0.02286490097                    0     -7.248184167e-05                    0     -7.618361443e-19                    0     -7.286494267e-37                    0                    0                    0                    0                    0                    0                    0                    0        0.08614876583        0.06671055101        0.09022522434      -0.005956469234         0.0393825566       -0.00514194446       -1.0113326e-05     -4.056651201e-06         -0.112581878        -0.1028502736       -0.08520489647       -0.03141634117      -0.009128348125       0.003434723059      9.791837496e-05      1.151607339e-05 
                   1                   30         -1.752139098                    0         0.5891941561                    0         0.2129565702                    0         0.2113167203                    0      0.0006698749791                    0      7.040866505e-18                    0       6.73415587e-36                    0                    0                    0                    0                    0                    0                    0                    0         0.2451218289         0.2521069886         0.1213435001         0.1420442662       -0.02164813153        0.01222270742     -2.971704007e-05      -2.42948531e-06         0.6110731615         0.6228478676         0.3037472454         0.3523552314      -0.001969172135        0.03596436413     -0.0003129485919      7.453542935e-06 
                   1                    2           1.77734373                    0         0.3574881283                    0         0.1292094378                    0          0.128214474                    0      0.0004064404747                    0      4.271980913e-18                    0      4.085887059e-36                    0                    0                    0                    0                    0                    0                    0                    0         0.2661398575         0.2298537242         0.2192598401         0.0547786538         0.1091750085       0.008507303454      5.068966794e-05      1.345343399e-05         0.4566637343         0.4508066057         0.2582143662         0.2259799791        0.01769078253         0.0122247115       0.000505254626     -5.175418016e-06 
                   0                  157          5.941250552                    0        -0.3483137706                    0        -0.0465738752                    0      -0.003608671703                    0     -3.596349454e-15                    0     -1.680944692e-70                    0    -3.652400215e-140                    0                    0                    0                    0                    0                    0                    0                    0       -0.03285419831       -0.02592226933       -0.03084210164      -0.002206408489       -0.01984195048     -3.172765196e-07     -0.0008650370539     -1.226003656e-40       -0.03851942261       -0.03292919473       -0.03367638102       -0.00531779671       -0.01169622694     -7.004755153e-07     -6.759653806e-07     -6.865305437e-32 
                   1                   29         -3.371451066                    0         0.3835392124                    0        0.05128395408                    0       0.003973621545                    0       3.96005313e-15                    0      1.850940898e-70                    0      4.02177238e-140                    0                    0                    0                    0                    0                    0                    0                    0        0.03502787863        0.02772508403        0.03257350523       0.002697346088        0.02104571612      2.904132009e-07      0.0009953973055     -5.773308025e-41        0.04208295469        0.03612082004        0.03657219818       0.006051325662        0.01209461909      8.735315939e-07      7.938400846e-07      2.636293464e-32 
                   1                    2          1.987706678                    0         0.1208981008                    0        0.01616557694                    0       0.001252553278                    0      1.248276283e-15                    0      5.834481378e-71                    0     1.267731243e-140                    0                    0                    0                    0                    0                    0                    0                    0        0.01442137895         0.0104654965        0.01394553098      0.0005247726521        0.01209232527      9.548540764e-08       0.002447019216     -5.204772318e-42        0.01369624455        0.01204192122        0.01150056601       0.002410527938       0.002556782655      4.198889704e-08     -4.008247418e-07      5.987166284e-32 
                   0                   81         -3.770917324                    0         0.2623258081                    0        0.03012588285                    0        0.00124106422                    0      7.377872027e-18                    0      2.043866535e-82                    0      1.49051548e-163                    0                    0                    0                    0                    0                    0                    0                    0       0.008879094992        0.00690250148       0.008515820544      0.0003959402882       0.005824948561      1.143932371e-11      0.0001760729095      1.750544829e-79        0.01968719243        0.01643220458        0.01770166286       0.002174020967       0.007725796118      1.108696491e-08      2.953873074e-05        2.8024213e-48 
                   1                   46          1.460184655                    0       -0.03236582075                    0      -0.003716938609                    0     -0.0001531227994                    0     -9.102836098e-19                    0     -2.521727404e-83                    0    -1.839001552e-164                    0                    0                    0                    0                    0                    0                    0                    0      -0.001013376022     -0.0008226993493     -0.0009510013013     -6.800330509e-05     -0.0005152665705      2.763332103e-12      2.071457603e-05      4.747765186e-79      -0.002496499598       -0.00199334255      -0.002303123095     -0.0002123118707      -0.001451498453     -2.556239593e-09     -2.635915453e-05      2.905582586e-48 
                   1                    2          2.280289938                    0        0.04362795518                    0       0.005010298743                    0      0.0002064039926                    0      1.227029366e-18                    0       3.39919729e-83                    0     2.478907547e-164                    0                    0                    0                    0                    0                    0                    0                    0       0.001860799991       0.001371404793       0.001825681498      3.824520127e-05       0.001529646182      4.570709398e-13      0.0001377018746     -1.380333039e-79        0.00352949708       0.002980608779       0.003137699846      0.0004289265623       0.001208615374      1.542652193e-09      1.091642498e-06     -1.533335132e-48 
                   0                   84        -0.1960302117                    0         0.5529291118                    0           0.13412711                    0        0.06424084319                    0      3.218408365e-07                    0      1.649161266e-33                    0      6.508824385e-67                    0                    0                    0                    0                    0                    0                    0                    0         0.1887380947         0.1675823117         0.1513336688        0.04152812509        0.04126594577       1.87748115e-05     -4.177823564e-05     -2.387545675e-25         0.2896888907         0.2715131665         0.2054724792        0.09403071496        0.01393720344        0.00251791313       4.89247534e-08     -2.872287983e-12 
                   1                   49          3.678169583                    0        -0.6754542763                    0         -0.163848725                    0       -0.07847615782                    0     -3.931584802e-07                    0     -2.014603691e-33                    0     -7.951133645e-67                    0                    0                    0                    0                    0                    0                    0                    0        -0.1578003532        -0.1444861211        -0.1193448406       -0.04280579499       -0.01516900503     -0.0002421630782      7.942093362e-07      -2.39621121e-25        -0.3623463845        -0.3407027592        -0.2552919069        -0.1194950207       -0.01277504812       -0.00333588501      6.724151885e-08     -7.660520319e-11 
                   1                    2          2.324150146                    0         0.2177160876                    0        0.05281261015                    0        0.02529486103                    0      1.267249748e-07                    0      6.493579936e-34                    0      2.562852542e-67                    0                    0                    0                    0                    0                    0                    0                    0        0.09265891155        0.07863353702         0.0809996107        0.01295114368        0.03355272387      4.498909201e-05      0.0001740855455     -2.894238617e-27         0.1417085478         0.1293332914         0.1070679124         0.0387319868         0.0191478148      0.0008502770044      1.329298924e-07      -7.98615229e-11 
                   0                   21          2.970593507                    0        -0.1703700688                    0       -0.07141068212                    0       -0.08548525662                    0      -0.001456640919                    0     -2.525450017e-14                    0      -2.53265995e-28                    0                    0                    0                    0                    0                    0                    0                    0      -0.007146200893        -0.0269628906        0.04585117671       -0.06024905991        0.02904828168      -0.002046877645      -3.46068014e-10     -7.398223017e-13        -0.2386000573        -0.2469152123        -0.1062010569        -0.1528950829      -0.004198939127        -0.0169647021     -1.067446403e-06      0.0001926178558 
                   1                   22          2.211130059                    0        -0.3407442888                    0        -0.1428231042                    0        -0.1709725961                    0      -0.002913317331                    0     -5.050961569e-14                    0      -5.06538161e-28                    0                    0                    0                    0                    0                    0                    0                    0        -0.1583079206         -0.180822554       -0.03730798118        -0.1350549301         0.0704037713      4.774174715e-05      1.969460282e-09     -1.250081541e-12        -0.4171518878        -0.4406278459        -0.1659480047        -0.2907153465       0.007987067863       -0.03060389024      4.815763771e-06      0.0001955313369 
                   1                    2          1.326609726                    0         0.4459241781                    0         0.1869092967                    0         0.2237478864                    0       0.003812591081                    0      6.610076707e-14                    0      6.628947882e-28                    0                    0                    0                    0                    0                    0                    0                    0         0.5359570292         0.4691180194         0.4537545771        0.09166438851         0.1077371356       0.001586822977      1.453757892e-09      1.934081546e-12         0.6135489448         0.6345349369         0.2659437362         0.3984053018       0.009907532479        0.01673225892       3.22930515e-06      0.0006760921973 
                   0                   20          6.186725116                    0        -0.8722510006                    0         -0.197779709                    0       -0.08074731262                    0     -1.002270493e-07                    0     -1.134020255e-36                    0     -2.150175637e-73                    0                    0                    0                    0                    0                    0                    0                    0        -0.3112575064        -0.2740137148        -0.2594771248       -0.05705419056       -0.05935668655     -6.077819208e-05      3.307923846e-06     -3.204646204e-28        -0.3597564618        -0.3384891151        -0.2524281911        -0.1189252466       -0.01096336727      -0.001169614279     -2.971061624e-07     -2.533329878e-08 
                   1                   21        0.04247408387                    0         0.1492625194                    0        0.03384472775                    0         0.0138177512                    0      1.715118914e-08                    0       1.94057353e-37                    0      3.679452731e-74                    0                    0                    0                    0                    0                    0                    0                    0        0.06641464339        0.05787209446        0.05623951257        0.01122914411        0.01589954323      -1.31546602e-05      5.187913819e-06     -1.129343258e-27        0.05977380087        0.05651663528         0.0416394072        0.02012110799      0.0004942716832        0.00031100691     -1.489124071e-06     -1.598135513e-09 
                   1                    2          2.331481637                    0         0.2083010024                    0        0.04723148682                    0        0.01928314917                    0      2.393507697e-08                    0      2.708137403e-37                    0      5.134803402e-74                    0                    0                    0                    0                    0                    0                    0                    0         0.1110861392        0.09200866072         0.1022678553       0.009687003494        0.04617143874      1.438264837e-05      2.138318826e-05      7.155602493e-29        0.09482303858         0.0881917049        0.06833212569        0.02943064632       0.007160655204      0.0004809202181      5.419132519e-07     -2.822346342e-09 
                   0                    2          2.454889386       -0.05549989179                    0       -0.01749415808                    0        -0.0140599978                    0     -6.800383632e-06                    0     -1.821988092e-23                    0     -5.630726057e-46                    0        0.06503538644         0.0428723188        0.08521827551       -0.02235658989        0.05222335897      5.784785692e-05      0.0002969983076     -1.389574251e-09       -0.09382236418        -0.0818095559       -0.08067694768       -0.01508486279       -0.01849072067     -0.0008420862879      0.0003977871612     -3.659490577e-06                    0                    0                    0                    0                    0                    0                    0                    0 
                   1                    3          3.952863446        -0.7811577866                    0        -0.2462292694                    0        -0.1978936608                    0     -9.571500871e-05                    0     -2.564437766e-22                    0     -7.925214558e-45                    0         -0.278419965        -0.2546442322        -0.2126485497        -0.0734266391       -0.02641291232      -0.002863625719     -2.520799357e-05     -4.358432524e-10        -0.8932927475        -0.8379012055        -0.6224084783        -0.3049964862       -0.07961628698       -0.01475319444     -0.0001312715976     -5.158391735e-06                    0                    0                    0                    0                    0                    0                    0                    0 
                   1                    1          3.236417724       0.009933028738                    0       0.003130996645                    0       0.002516371793                    0       1.21709077e-06                    0      3.260882047e-24                    0      1.007752663e-46                    0        0.01955373643        0.01648652633        0.01794448135       0.001778829077       0.005532303896      7.359513304e-05      6.939617762e-05      -2.03711361e-10        0.04744175204        0.04801693077        0.02907137923        0.01929868793         -0.019337824      0.0001062197761      -0.002159036374      1.147161172e-05                    0                    0                    0                    0                    0                    0                    0                    0 
                   0                   25          3.026402056                    0       -0.05165661009                    0      -0.006312815244                    0     -0.0003399707882                    0     -1.766205423e-17                    0     -3.456582123e-78                    0    -1.508792373e-154                    0                    0                    0                    0                    0                    0                    0                    0      -0.003562982398      -0.002664265608      -0.003378502337     -0.0002031545687      -0.002740257393     -8.092779988e-10     -0.0004834837221      3.901696196e-69       -0.00448786454      -0.003860048528      -0.003931374892      -0.000609484297       -0.00115049812     -2.512457542e-08      5.324380029e-07      1.376677009e-40 
                   1                   26          6.294898765                    0        -0.3594230808                    0       -0.04392412702                    0      -0.002365492971                    0     -1.228913383e-16                    0      -2.40506567e-77                    0    -1.049807183e-153                    0                    0                    0                    0                    0                    0                    0                    0       -0.02971129017       -0.02344821129        -0.0277046934      -0.002196914095       -0.01756227915     -1.115626279e-09      -0.001301735678       -2.0425122e-69       -0.02878144502       -0.02440247726       -0.02557353967      -0.003511861189      -0.009239891261     -1.457015509e-07     -2.812025193e-06     -2.157615786e-40 
                   1                    2          1.385212231                    0         0.1220086336                    0        0.01491034663                    0      0.0008029828371                    0       4.17163089e-17                    0      8.164160616e-78                    0     3.563642591e-154                    0                    0                    0                    0                    0                    0                    0                    0        0.01140573656       0.008590819849        0.01082220366      0.0006392174793       0.008081664134      1.734350264e-10       0.001776914893      -1.57656745e-69       0.009538945356       0.008289742404       0.008233584261       0.001429915662        0.00203013535      5.493209801e-08     -1.586346044e-06     -1.526313067e-40 
                   0                   24          6.415774513                    0        -0.4282504545                    0       -0.05881671332                    0      -0.005052794791                    0     -1.171541767e-14                    0     -1.972315515e-68                    0    -3.738239688e-136                    0                    0                    0                    0                    0                    0                    0                    0       -0.05992653194       -0.04707634574       -0.05651046189      -0.003730287561       -0.03579182469     -1.653334873e-08      -0.002507730025      -6.05213523e-36       -0.04685262584       -0.04098796354       -0.03965701975      -0.007898803918      -0.009535837798     -4.077700467e-07     -3.401311486e-09     -4.585320635e-44 
                   1                   25          4.323038668                    0        -0.3681716227                    0        -0.0505653749                    0      -0.004343943218                    0     -1.007187334e-14                    0     -1.695621326e-68                    0    -3.213805748e-136                    0                    0                    0                    0                    0                    0                    0                    0       -0.04851238958       -0.03680799333       -0.04591997047      -0.002837291975       -0.03283336657     -4.586199893e-08      -0.008023421242     -1.003857402e-35       -0.04143676999       -0.03643357976       -0.03478020337      -0.007307336187      -0.007590421238     -2.629435648e-07     -5.497808058e-08      1.136873305e-44 
                   1                    2          2.393056709                    0        0.09038731926                    0        0.01241396241                    0       0.001066452052                    0      2.472677346e-15                    0      4.162804972e-69                    0     7.889996628e-137                    0                    0                    0                    0                    0                    0                    0                    0        0.01491241996        0.01021628598          0.014548885      0.0003982339771         0.0130535281      9.782197061e-09       0.007515680811       2.24665763e-36         0.0102338031       0.009194636311       0.008187796186       0.002249200162       0.001229474527     -4.777796492e-08       1.04148966e-07     -6.850533097e-44 