./descriptors_mote2/lmpdatafile.8 (written by ASE) 

54 	 atoms 
2  atom types
0.0      19.174353259623835  xlo xhi
0.0      11.539990794569157  ylo yhi
0.0      29.999991154072013  zlo zhi
 2.9506541316800546e-05   -0.026732977382222696  1.9850802815995338e-05  xy xz yz


Atoms 

     1   1      2.3087012789284604     0.25418707610976049      3.4969538783365244
     2   1      4.5184648437177666      2.5113246961618803      3.8782708316379879
     3   1      2.1981648285790318      4.0293197630900872      3.5909231825631904
     4   1      4.5719852165950368      5.8999632587194935      3.5956003824669516
     5   1      2.1806597250029576      7.3782700659222265      3.3934774383464021
     6   1      4.5810545867060979      10.236773231903692      3.9186301945831841
     7   1      8.4025374801466146      11.410332284719239      3.9547322457184348
     8   1      10.893823929501131      1.5633832124896192      4.3578247654689042
     9   1      8.6459870541771036       4.288706189250945      3.4418431359204238
    10   1      10.758230302206938      6.0722163812534804      4.2542097863778752
    11   1      8.5704399614976232      8.1439484081498268      4.1631399520144035
    12   1      10.856506866021919      9.8069341045509546      4.3602495887752033
    13   1      15.055153570288814      10.877633869178059      3.8633278012913088
    14   1      17.090131130850089      1.1500755168854726      4.0217071460773086
    15   1       14.64292156369353      3.7677338846666815        4.21503880024295
    16   1      17.084434900794587      5.6573257721787318      4.2253469138585729
    17   1      14.944323319150008      7.5328966582548871      4.1243112294977831
    18   1      17.355856582153617      9.5578791916089418      4.0179288877385275
    19   2     0.92462266446045061      1.9940109282594216      5.0521152197617241
    20   2       3.732613196161441      4.3518844965989425       5.758025899099728
    21   2      5.9464339815929668     0.65905989739967596      2.4919986620975441
    22   2       2.714680151062745      2.0219763879268777      1.7350764859775278
    23   2     0.57244573855147918      5.8669393035755473      5.0363298110404475
    24   2      3.8702113824404458      7.8299609644021499        5.31482817748297
    25   2      6.1132974472830615      4.0884257177219281        2.13337035364522
    26   2      2.9248624681153763      5.8357012076270154      1.4288161716997161
    27   2      1.0122877315011785      9.6745087560853182      4.9015981174695176
    28   2      4.1322264313728816     0.56630500761501334      5.8004749912928242
    29   2      6.1249873363235672      8.1964357427775081      2.6529840031359457
    30   2      3.0264599208960341      9.5600489639474624      1.7275906146818989
    31   2      7.1633579852367459      2.4601623973418172      5.0159343177468241
    32   2      9.7255348454053845      3.8625618864619424       5.841495532092547
    33   2      12.456012248507875      11.278105077498108      2.7230855490845629
    34   2      9.7288979174226906      1.5696895164381179      1.9046779047788391
    35   2      6.9846625851017308      5.9435667248894717      5.1411322829573853
    36   2      10.285557190436197      7.7969688343992116      6.3193457307836542
    37   2      12.195923723714552      3.7165315299987207      3.1759812644853382
    38   2      9.1718932594282272      6.5260529078749245      2.1296269387787796
    39   2      6.6799996188355184      9.8738142408325906      5.5925010777458795
    40   2      9.9369046885819081      11.354987012330461      6.1085550731122531
    41   2      12.366465067202146      7.1780672250658109       2.752497817656721
    42   2      9.0197399549377248         9.7397063703811      1.8539003572624397
    43   2      13.615717525889723      1.2693989913824377      5.3419916835162322
    44   2      16.784226031747686      3.3700138072107806      5.7547264778190801
    45   2      18.872401706810592      11.470292317318048      2.6865334269551129
    46   2       15.36315469570847      1.5265155287663559      2.1334556625029775
    47   2       13.32935671911226      5.8747559349975216      5.5580344340034662
    48   2      16.882576356376308      7.6657716283155457       6.031706189283093
    49   2      18.464389196237235      3.4593320412003608      2.7099503498961353
    50   2      15.177303954539273      5.4530900942597347       2.374713849985489
    51   2      13.392594887056514      9.1945943270715116      5.3800271736834304
    52   2      16.457945519194826      11.201941765426248      6.0798237299624045
    53   2      18.487548590944819      7.4400114543946874      2.6469489569936937
    54   2      15.441204587171553      9.0060536115630843      2.0278958096420201
