./descriptors_mote2/lmpdatafile.9 (written by ASE) 

54 	 atoms 
2  atom types
0.0      19.174353259623835  xlo xhi
0.0      11.539990794569157  ylo yhi
0.0      29.999991154072013  zlo zhi
 2.9506541316800546e-05   -0.026732977382222696  1.9850802815995338e-05  xy xz yz


Atoms 

     1   1      2.1587619889971985     0.20755085229933759      3.8528728404102148
     2   1      4.6399636198617733      1.7970017320132712      3.7549243469476892
     3   1      1.8892079547415035      3.7969472349484583      3.7927385387024337
     4   1       4.343892909925124      5.5694989195503419      3.9933545869393816
     5   1      2.4650418076484799       7.505333361845631      3.5060494233128052
     6   1      4.8069351124683273      9.8691279071811415      4.0086638876709877
     7   1      8.4305913908549286      10.987851584776378      3.8996801352251955
     8   1      10.847288431559175      1.5783738898093214      3.6176215855076248
     9   1      8.7503393489972847      3.6739139791542947      3.9132540967287581
    10   1      10.901236396331843       6.081402909635405      4.1382517515574015
    11   1      8.3353176143712524      8.1630438806904539      3.9491539480089166
    12   1      10.790864416913914      9.5762954535810607      3.9931212329459482
    13   1      14.966861335515397       11.44954606018195      4.0165290008944563
    14   1      17.097593471045833      1.9835454985983658      4.2953269044324252
    15   1       14.99922210260393      4.3081053134863332      4.0606568865109125
    16   1      17.204231552849119      6.0664828007505429      4.0192573791247321
    17   1      14.814082551794732      7.7380996094917922      3.8678459423293781
    18   1      17.308437410911854      9.4850104145001541      4.1797853884464526
    19   2     0.62786467845686589      1.8095381280410452      5.2853969595586641
    20   2      3.6341510803992731      3.9911268721347346      5.8127039225696677
    21   2      6.0650764699374307   0.0047569742934859723      2.3222782623981306
    22   2      2.7037340859060937      2.1108166866914448      1.8007217887265343
    23   2     0.44688971234975478      5.7308524493576956      5.3063515003424744
    24   2      4.1465201129849012      7.6696446240949792       5.722609761490177
    25   2      6.1639602906386406      3.8639247202777089      2.4921288616275095
    26   2      2.6607154691613517      5.5630777596588619      1.8831819657044349
    27   2     0.61170371828578951      9.5200585125426613      5.2812905193237905
    28   2      3.8362215786384248     0.20755207369837347      5.8347576700658621
    29   2      5.8553896261551968      7.6215721142674981      2.5739021803934508
    30   2      2.9654805362806047      9.8077105304324057       1.925058737775597
    31   2      7.0100949436821045      1.7380560479621474      5.0201889127905117
    32   2      10.785973083000675      3.7441966085413694      5.7818598546118523
    33   2      12.478294600914399      11.193224341679899      2.3699152106383807
    34   2      8.9713478736379582      1.6516075068373088      1.8312003019960241
    35   2      7.0913809392767053      5.5581142201503555      5.2026059112261631
    36   2      10.045254021207787      7.5663343630327953      5.9898628173020665
    37   2      11.938179431888219      3.9016372535542958       2.467534328478195
    38   2      9.0460824948818903      5.7523759424521659      2.1982984954707452
    39   2      7.1188082375558883      9.8054039900854715      5.9276507979149988
    40   2      10.740939110683323      11.422937698625319       5.809194682098183
    41   2      12.302008319357876       7.732418595011139      2.4694906486714148
    42   2      9.3201024585445555      9.6125092180866325      1.8499838568839617
    43   2      13.350070732609749      1.9854052388013972      5.2106543282928071
    44   2       16.64097154601345      4.1512174223017544      6.1068539071480243
    45   2      18.548968897909912      11.503019896684908      2.4805188095722563
    46   2       15.29932231507461      2.1959171386205774      2.2885096566701391
    47   2      13.296825643614987      5.8961966018247338      5.3730605606240198
    48   2      16.397921152752605      7.6426931584531728      6.0199552391393718
    49   2      18.443532010271976      3.8675325624392665      2.7523021238128957
    50   2      15.779105550126964      5.7723954555381107      1.8360814644877392
    51   2      13.419703675179619       9.595353803437364      5.5890735269390266
    52   2      16.794232697568326      11.436883707832886      5.9895251809165568
    53   2      18.894826677362826      7.7265516248172492      2.4154755987904286
    54   2      15.578824274980462      9.7515303826435797      2.1084402657316508
