./descriptors_mote2/lmpdatafile.7 (written by ASE) 

54 	 atoms 
2  atom types
0.0      19.174353259623835  xlo xhi
0.0      11.539990794569157  ylo yhi
0.0      29.999991154072013  zlo zhi
 2.9506541316800546e-05   -0.026732977382222696  1.9850802815995338e-05  xy xz yz


Atoms 

     1   1      2.2252270266539624      0.7203789357019369      3.2775212778478959
     2   1      4.5776755681636674         2.1705730446553      3.4622401929752455
     3   1      2.4548893862874319      3.9528634457170795      3.2364177235034122
     4   1      4.6748489913758631       6.445940857581232      3.6769882800869782
     5   1      2.1196663853094271      7.7915516362055532      3.5968254463946145
     6   1      4.4575166809755364      9.8266160331478591      3.6789143028353202
     7   1      8.5640797422081114     0.27649845901399039      3.9940860835194236
     8   1       10.69461044454181       1.773897966987503      4.3789070862390824
     9   1      8.7429974611218793      4.1540042420842864      4.0646240776438525
    10   1      10.823203789340811      6.2222449905601387      4.5223472038696801
    11   1      8.7127302482914502      7.8737646976829598      3.6072807303741694
    12   1        10.6937232665948      9.8966682027865307      4.7441212408562077
    13   1      14.923151497260859      10.843057094163555      4.0056306552539711
    14   1      17.410414633027958      1.7991779458026416       4.112717011512383
    15   1      15.091792602924983      3.3277231729316559      4.1695419201553037
    16   1      17.220992165138149      5.1717724526532249      4.1071905189712776
    17   1      14.899392361870104       7.433907605935171      3.9147707532199165
    18   1      17.270893925607041      8.8087711596621805      3.9246751475164783
    19   2     0.77659492361443871      1.9165944458013158      5.0415164375750905
    20   2      4.0597081466716141      4.0503164929080242      5.3843950772974809
    21   2      6.1867251162000176    0.042474083870192789      2.3314816371953828
    22   2      2.9705935074455541      2.2111300585601228      1.3266097257498992
    23   2     0.74584085168614844      5.5297653001608165      5.2500231023771144
    24   2      3.8131056120468143      8.2171425208533684      5.6535415451432396
    25   2      6.4157745129853812      4.3230386684828765      2.3930567091962125
    26   2      3.0264020559842768      6.2948987653011699      1.3852122312641986
    27   2     0.65931993649449316       9.541257103850878      4.8080140340743664
    28   2      3.6678889946043185      0.4459357726215416      5.3047309536259188
    29   2      5.9412800587798085      8.1685397289619406      1.9877066778867969
    30   2      2.4927880371478004      9.7878516967395726      1.7773437304542556
    31   2      6.8755208418612446      2.4360094856833783      5.4226780974802695
    32   2      10.204938140653919      3.7102507530724327      6.3206099574133141
    33   2      12.088289775891512    0.056653886230002594      2.8236186258331162
    34   2      8.9978936350224998      2.2636670174717395      2.0760258016778503
    35   2      6.9987214197348493      6.0149062832524152      4.9571409560385913
    36   2      9.3916048205844955      7.7070400319563594      6.1774549660111786
    37   2      12.240235187250317      3.8898705803148466       3.356680837077036
    38   2      9.4109894624319175      5.7373872270120465       2.148418576235648
    39   2       7.004257257988078      9.8223563364727244      5.2734163408340367
    40   2      9.7888242090642628      11.509830742591742      6.4614864055051093
    41   2       12.28007761011448      7.9773694186926969      2.9880715104179787
    42   2      9.3799280238890059      9.9945681160154951      2.4036044752180326
    43   2      13.460946062138666      1.6899528625087434      5.6631338373812055
    44   2      16.669630547639709      3.3314567275214682      6.0856428836195322
    45   2      18.566617089035024      11.177539525876531      2.5654527896300316
    46   2      15.403435935985751      1.4601846552588387      2.2802899384791728
    47   2      13.378312401117309      5.2030348077027604      5.6238306591632288
    48   2       16.60804426460475      7.0447980710477491      5.8731676956554777
    49   2      18.978323047938169      3.6781695829726262      2.3241501463102416
    50   2      15.360821831262843      5.3387355696233598      2.1063601659823408
    51   2      13.448949835635569      9.6002732345300128       5.807953002670101
    52   2      16.973323405380015      10.981639305393566      5.7502457860176754
    53   2       18.74274335923182      7.1006653134373305      2.5333218217825269
    54   2      15.394481361590014      9.1643446792157341      1.9511728880824193
