./descriptors_mote2/lmpdatafile.1 (written by ASE) 

54 	 atoms 
2  atom types
0.0      19.174353259623835  xlo xhi
0.0      11.539990794569157  ylo yhi
0.0      29.999991154072013  zlo zhi
 2.9506541316800546e-05   -0.026732977382222696  1.9850802815995338e-05  xy xz yz


Atoms 

     1   1      2.0525392304551944      11.309073434648036      3.9399234375911947
     2   1      4.4199061345688087       2.294987455052472      4.5881592277680143
     3   1      2.5408793859098484      4.4211518020796108      3.9297435571200574
     4   1      4.5609760851490861      6.7640439581824072      4.3473457437698908
     5   1      2.1584656469960048      8.0127810789686507      4.2267279911960349
     6   1      4.6026058351108166       9.738692877603583      4.1918096926288388
     7   1      8.4845416297461362     0.29132026942650618      3.8514291159290464
     8   1      11.135468132857595      1.6715072518695653        3.99939893479764
     9   1      8.6253224925341083      3.9436266188595299      3.3348754959979745
    10   1      10.646673720561559      5.8875686436636867       3.578239455228224
    11   1      8.5918098357884887      7.4245176970648474      3.8154587822330162
    12   1      10.804483115086896      9.9940950651149851       3.882379168389718
    13   1      15.013754551424313      11.261754641810027      3.4971116311544934
    14   1      17.292555589133126      1.4646906174901615      3.8826387094702852
    15   1        14.9299718042459      3.6660266132232722       3.461273727800374
    16   1       17.42073512135493      5.4388476518720639      4.0279585639026303
    17   1      14.607167365312357      6.9583844379927395      3.7013983570745399
    18   1      16.891869364379268      8.7937603353567813      4.1881363160779301
    19   2        1.17392644802278      2.1720150589937068      5.1643000585013628
    20   2      4.2752784739298511      4.7225417883910525       6.118404865391982
    21   2      6.0694492698245073    0.057176990773336579       2.529594290464944
    22   2      2.9991159314521121      1.5551898608535293       2.154519184182055
    23   2     0.86061260751228696      5.8532627266502786      5.5225573028351125
    24   2      3.6661220684370437       8.281676511124143       6.498544850111716
    25   2      5.6751553618686552      4.3450066618142333      3.0177225132611816
    26   2      2.9318299010016373       6.315241467930031       2.161425896469658
    27   2     0.21661665793346255       9.551668318951311      5.9718104705062052
    28   2      3.8425913374855858     0.25552213050304662      6.1931665193182006
    29   2       5.983303765105882      8.0024989460692808      2.3617435603235593
    30   2      2.6090658765533208      9.5406090180865029      1.9310001966886372
    31   2      7.0423163482156621      2.3361553169924711      5.0818818789639542
    32   2      10.024594558367328      3.9914945829287785      5.5240468419630853
    33   2      12.371522684239581      11.395326877601752      2.3599616693820362
    34   2      9.4622901602750122      1.8724757871030708      1.7741795131201834
    35   2      6.9120135427590847      7.0824689551213469      6.0018747837202762
    36   2      10.603095228652561      7.7348008385929745        5.56794158521142
    37   2      12.276117639324147      3.7761290181808596      2.1392780034691592
    38   2      8.5759654119291575      5.8746866829315305      1.4236662945654381
    39   2      6.9411818175349085      9.7237580470578937      5.6330520073579633
    40   2      10.289584320604053     0.11843864547939614      6.1630657094449539
    41   2      12.304117342418811      7.7965682904660998      2.0320830474631553
    42   2      8.7775265324612075      9.7349022717044491      2.0870052469754548
    43   2      13.616269642307497      1.4217787711183369      4.9857420102601022
    44   2      16.557452413421405      3.4346191902885455      5.7286318287779041
    45   2      18.757278131621181      10.886985109388116      2.7755692394835214
    46   2      15.796660771214846      1.7513048585937023      1.5301372343120032
    47   2      13.189744849958476      5.2118390183277397      5.1455369520906462
    48   2      16.244954239155081      6.9754667999524527      6.0206201950146596
    49   2  -0.0011443298045229857      3.8022817405876279      2.9444987862967813
    50   2        15.7285734349717      5.5259065831134988      1.7066836279185769
    51   2      13.553340976708268      9.3529402918745976      5.0210326552123972
    52   2      16.300050523113502      10.893205323710978      5.7354815356709246
    53   2       18.72949651613192      7.6117657497102336      2.7410439033952834
    54   2      15.457575377322254       8.982623143348663      1.8928876902969434
