./descriptors_mote2/lmpdatafile.6 (written by ASE) 

54 	 atoms 
2  atom types
0.0      19.174353259623835  xlo xhi
0.0      11.539990794569157  ylo yhi
0.0      29.999991154072013  zlo zhi
 2.9506541316800546e-05   -0.026732977382222696  1.9850802815995338e-05  xy xz yz


Atoms 

     1   1      2.2434381278409457      11.400998506588936      3.2798691873771957
     2   1      4.4629309819928533      1.8824260650632672       3.959306701499484
     3   1      2.2330837510003296      3.8919687230693554       3.231939843587468
     4   1      4.3255140969651276      5.9635091225744707      3.5899492962613007
     5   1      2.0963656639638422      7.6254719859230198       3.244473934624327
     6   1       4.145299010307089       9.443183321598509      3.4319249671621295
     7   1      8.5000615390286161     0.59380000281099343      4.0281099349432026
     8   1      10.940944545426508      2.4287822079614254      4.5588677048903179
     9   1      8.4706533150082475      4.1215408779814808       4.327538541811891
    10   1       10.83239563782106      5.6478647259076222      4.4437898312098003
    11   1      8.7155467536723599      7.6493048895481017      4.0526250527018508
    12   1      10.676569116886855      9.6015383889898267      4.3622580372660726
    13   1      15.141773361866736      11.325391916011707      4.0501640365421618
    14   1      17.312992868114989      1.8861101929237505      3.9889359966849205
    15   1       14.88352733572305      3.6692180108415609      3.9634617979741602
    16   1      17.237673484226306      5.9572420243497506      4.0531323934732999
    17   1      15.002520364807218      7.7478052851397008      4.1452492825891678
    18   1      17.308545030910867      9.4488003389828688       4.054345442061865
    19   2     0.97409960509592697      1.9673195870233759      4.7710314364365836
    20   2      3.7028801774630358      4.1156650473085987      5.4880358652539458
    21   2      6.1303978335219842    0.083005380648454766      2.2556858892435256
    22   2      2.9380725983813423      1.8272710368390717      1.6778365983223078
    23   2      0.6788890191583048      5.5465767909519839       5.072953007503525
    24   2      3.5645356553146685      7.7190383372975537      5.4807178337076472
    25   2      6.0892559580263637      3.9637165794128371      2.6310885883086925
    26   2      2.7682130766092605      5.4616748154049048      1.2206058132588433
    27   2     0.72256790015016648      9.4912956246190063      4.8533590557015955
    28   2      3.8341123600886999      11.277481968030429      5.5613077992108648
    29   2        6.19494749104474      7.5735939408886788      2.4185181391572721
    30   2      2.5504019388932693      9.3134099938614625      1.2076708904875075
    31   2      6.7903118740273607      1.8234017019034732      5.7460343184703078
    32   2      9.9905952507627074      3.9811559763332127      6.5284420888634616
    33   2      12.149758038168379        11.4431327262027      3.3394546653715209
    34   2      9.5171208408059123      2.1529248136287782      2.3445235001081253
    35   2      6.8849363013176745      6.1591993592333205       5.588838609390856
    36   2      10.337854177302802      7.6554875070604762      6.1776559312949715
    37   2      12.447264996897323      3.8184352704783482      2.7005083564546863
    38   2      9.1534364408395064      5.8160634032707126      2.2263426717256425
    39   2      6.9147247618183556      9.7962082520405183      4.9024857687452092
    40   2      10.440191223918688     0.21246490688769698       5.899107697936393
    41   2      12.285788927805418      7.5639692301665207      2.8978693536990017
    42   2      9.3515388252868394      9.5876386399341591      2.1426363591599658
    43   2      13.653078033514976      1.8733581645086803      5.4491315895580472
    44   2      16.817062170683766      3.8498131578852011      5.9820404916241587
    45   2      18.630677250979094      11.474467947771014      2.4738485658030167
    46   2       15.39079392374745      1.8938148620740425      2.1182225464350912
    47   2      13.366724044701796      5.6644150704092606      5.6009947908752169
    48   2      17.014353708849569      7.6578485315006741       6.100633250093785
    49   2      18.481441524918836      3.8854513963336994      2.2988426211105017
    50   2      15.367765493576027      5.8653354559515387      2.1948692489785522
    51   2      13.239529594085525      9.3328880523434545      5.5203316292011184
    52   2      16.842153879946185     0.15162263759549585      6.1162665828495602
    53   2      18.579435667893126      7.6875690978088924      2.3557619585251826
    54   2      15.380930890937872      9.5407750622469045      2.0549745507671382
