./descriptors_mote2/lmpdatafile.5 (written by ASE) 

54 	 atoms 
2  atom types
0.0      19.174353259623835  xlo xhi
0.0      11.539990794569157  ylo yhi
0.0      29.999991154072013  zlo zhi
 2.9506541316800546e-05   -0.026732977382222696  1.9850802815995338e-05  xy xz yz


Atoms 

     1   1       2.183999879857613      11.001760063682521      3.5245898198999406
     2   1        4.14903158860887      1.9230335546461215      3.9891450966129143
     3   1      2.1599094134514636        3.75182075539393       3.731472097681968
     4   1      4.4009691876763855      5.2371074594119698       3.819031294332969
     5   1      2.3707647778942413      8.0084556273869172      3.5424725214418875
     6   1      4.7288957664914264       9.455639729870029      3.9486792704476401
     7   1      8.5665328210729736     0.29529848174828116      4.1335894926149477
     8   1      10.804664609184986      1.8846952167289646      4.1544846326066054
     9   1        8.48771171566516      3.8170400753995684        3.64582102531844
    10   1      10.864144006360744      5.7494937641295936      4.0894520913553709
    11   1      8.4995964831958339      7.1035300460386077      4.0802353636979936
    12   1      10.815400577549564      9.3618652022869764      4.5654848359564975
    13   1      14.996009882525332     0.46569534589303252      3.9867648627071235
    14   1      17.402978114290939      1.6195180631284096      4.0101470410212334
    15   1      14.944055569424929      4.1951065070812028      3.8550126746594078
    16   1      17.044682490279261      6.2440065222167505      3.8875828567224575
    17   1      14.744912269544933      7.8279712657621507      3.8844929977057965
    18   1      17.404511669292759      9.9509379487862706      3.8722338651684511
    19   2     0.89847519897802908         1.5047915443988      5.0415403909744949
    20   2      3.3827546963444814      3.6296629895557588      6.0416866934829132
    21   2      6.1492325962680399     0.21775515247589677      2.6342514455277075
    22   2      2.3944559445125582      1.6607440129062654      1.7390366092421587
    23   2     0.64778708388960082      6.2871274447356686      4.9237006446977807
    24   2      4.0984400549101787       7.413915649017274      5.5170651553307426
    25   2      5.7253232459480987      3.3912050687678463      2.3323498620639187
    26   2      2.8552481047678882      5.6173130807897262      1.8004131398954004
    27   2     0.90975063304909642       9.396261448131364      5.3337109575441968
    28   2      4.0207735527207804      11.160647722132016      5.9009588870208676
    29   2      6.1191345916819042      7.1580358203344527      2.5472766838509719
    30   2       3.493567635348743      9.4308977145968971      1.5039578773871236
    31   2      6.7737310477783543      1.9189318208730275      5.2718315619720322
    32   2      10.297643999111786      3.8182983890351605      6.0501941629958003
    33   2       12.33829315578498      0.1047179688028908      2.8816844351211151
    34   2      9.1394565349375778      1.7172434761271507      1.7813560081256921
    35   2      6.6733598435910837      5.2415343021108409      5.4283348534464411
    36   2       10.14164686884307       7.527762188072618      6.1955924944116232
    37   2      12.410937662963612      4.0367660800918488      2.6055793446470075
    38   2      9.3210938506703602      5.5877292811512236      2.0009777937949176
    39   2      7.1431466963173769      9.3135931247680457      5.4361533459573712
    40   2      10.099744787006546      11.403333075921575      6.0052136652434873
    41   2      12.233635389925563      7.7864403759431005      2.7331690198090257
    42   2      9.0138822117277204      9.3891269294265971      2.5756433556521108
    43   2      13.444062278901884      2.4261031309702603      5.4332905013724169
    44   2      17.075629006136161      4.0750567988670747      5.6311873251836069
    45   2      18.815041018759995     0.02355337565075679      2.1639929353337433
    46   2      15.509073020429542      2.2640819729248118      1.9915210688971676
    47   2      13.519319637963067      6.0554613141683751      5.3879493141357946
    48   2      16.547350973899245      8.2237094604336498      5.7773453671534734
    49   2      18.707543894964466      3.9917064169147913      2.9915268650204236
    50   2      15.415626636717807      6.2995839917165348      1.6359027620018125
    51   2      13.520540426752206      9.9835914562505153       5.680338807689286
    52   2      16.680921819351028     0.26177648197017644       6.127089969829564
    53   2      18.412404252457698      8.0024929002797407      2.0570271513885863
    54   2      15.217497927310303      10.007129080073124      2.2738049507513578
