./descriptors_mote2/lmpdatafile.2 (written by ASE) 

54 	 atoms 
2  atom types
0.0      19.174353259623835  xlo xhi
0.0      11.539990794569157  ylo yhi
0.0      29.999991154072013  zlo zhi
 2.9506541316800546e-05   -0.026732977382222696  1.9850802815995338e-05  xy xz yz


Atoms 

     1   2     0.42404631379816671      5.5863031532589336      5.5817811558626564
     2   2      3.6448102025627733       7.997037033546146      6.5246564237349496
     3   2      5.9202359926149981      4.2096109517370364      3.2309319631588513
     4   1      2.1120795539308874     0.14382218039068914      4.2257905154177688
     5   1      4.1216822188641213      2.1874345632243668      4.6038587551868657
     6   2     0.75246307706076798      2.2749354967544435      5.8607645445510643
     7   2      3.8839226840389429      4.3772911810520601      6.2503495555122015
     8   2      5.5149686070518653     0.64387035638812251      2.8155894503100121
     9   2      2.5888003913827924       2.113519770579114      2.3990679561753785
    10   1      2.2234527167554052      4.1133795179624775      4.2045176493100582
    11   1      4.5494985020405814      6.4674842661753233      4.4072905639185116
    12   1      2.2853886008119506      7.6391579268875649      4.0020784914778558
    13   1      4.3049050704424001       10.07285008920403      4.4065698312748456
    14   1       8.617894239916863     0.60265695437703815      3.6093978161666658
    15   1      10.878242055534979       1.648313143498179      3.6012931025343091
    16   1      8.5781722852620899      3.7013277863775462      3.4126023860172823
    17   1      10.606175812277831      5.7843998005125199      3.9098654237944572
    18   1      8.5818772873997329      8.1021478162222706      3.6134448436218372
    19   1      10.717273723238856        9.53370697572519      3.5982320612048846
    20   1      15.123971227966608      11.181832105383309      3.6471498505623878
    21   1      17.513593722589011      2.0037154403211588      4.0277453920536495
    22   1      15.058652597309138      3.4540136817186999      3.6878168969126963
    23   1       17.35602610171803      5.3523891735547764      3.9958716755416397
    24   1      15.169009455990391       7.036050881914873      3.3888926530769581
    25   1      17.067723095930752      8.9602060975066191      4.0990823276115096
    26   2      3.1088164336398347      5.7292172285700129      2.1165139309457488
    27   2     0.45674686752728949      9.2644222880035301      5.4306626840881398
    28   2      3.7845966676384486     0.22775374653872629      6.5981590074230194
    29   2       5.943446495662938       8.416210097194714      2.7095000868000914
    30   2      2.8397687317017559       9.903163671887711      2.1811500632355654
    31   2      7.1653559182436375       2.200622594714102      5.4372575404816574
    32   2      10.294302980393503      3.5170182363492763      5.6510095003501828
    33   2      12.623287265877993      11.166310724295835      2.0846297134499348
    34   2      8.2763855154181325      2.1582937358004646      1.2905160804427822
    35   2      6.9967743728911591       6.800256743616389      5.6687185009447552
    36   2      10.169382460687727      7.6515913449002477      5.8809393870626172
    37   2      12.446718672140618      3.5652349718120737      2.1646672946793037
    38   2      8.8913440625792202      6.0607194639268567       1.919570221459842
    39   2      7.2325631238051216      10.390560978933452      5.4058427555691724
    40   2      10.516467876834531      11.384162868905676      5.5114629438595255
    41   2      12.295502242283437      7.3669587226662872      2.4228620923267661
    42   2      8.9777151371474488       9.934167136764156      1.4514134302357229
    43   2      13.382186793561669      1.4300143575626467      5.0101876241602357
    44   2      16.598404063149093       3.564538333030332      5.9307569346747711
    45   2      18.705618519310409      11.236716494169588      3.0420298798316479
    46   2      15.943916092104287      1.6142714794430206      1.7472052968368568
    47   2      13.520661738468108      5.5600109297002893      4.7819808741187755
    48   2      16.274215726003934      7.2658660322376045      5.8981092082600473
    49   2      19.035060033416361      3.7270982558699699      2.3645263577143796
    50   2      15.836370256762427      5.2155039069556537       1.517488432562389
    51   2      13.421139046510733      9.0965431988194663      4.6083448762257584
    52   2      16.816307597732052      11.367173088578966      5.8283047276669881
    53   2      18.795725020912343      7.1585340824560308       2.585262994255149
    54   2      15.845354884179898      9.1634338238081803      1.7403682790962385
