./descriptors_mote2/lmpdatafile.10 (written by ASE) 

54 	 atoms 
2  atom types
0.0      19.174353259623835  xlo xhi
0.0      11.539990794569157  ylo yhi
0.0      29.999991154072013  zlo zhi
 2.9506541316800546e-05   -0.026732977382222696  1.9850802815995338e-05  xy xz yz


Atoms 

     1   1      2.0357545077900294      11.449463971941153      4.1767210210324208
     2   1      4.6870781790446454      1.0182507864433943      4.0579083788487544
     3   1      2.3245608719791009      3.4239470094200586      4.0299437159403597
     4   1        4.37679044301803      5.3557284080201555      4.4604793250089072
     5   1      2.5266734267959232      8.0341421810794937      3.9982023219345164
     6   1       4.495904789203955      9.7206352705842018      3.9390561626216098
     7   1      8.1692271304028257      10.753057931236704      4.1144294274610909
     8   1      10.982707014849664      2.0884608974416961      4.0149635153920071
     9   1      8.5011238499012567      4.1621097198996315      3.5833487714785743
    10   1      10.762741930872558      6.0640359959747068      3.7763554200658418
    11   1       8.524036531379739       7.351049259046361      3.7272277195360131
    12   1      10.547679573391052      9.6917312413709116      3.9911645321264544
    13   1      14.983232393190551      11.513055354640317      3.4733704604221574
    14   1      16.809303144666096      2.3100122564539141      4.1150293308737327
    15   1      14.986367787359937       4.553635294893895      3.5023689673243967
    16   1      17.014190730751707       6.036247198982708      3.8032919538310601
    17   1      14.860815608300005      8.0327182910305002      3.5134482103698339
    18   1      17.149064242031557      9.8180040269646227      3.8677908442651221
    19   2     0.30658159239006294      2.3204658735678456       5.452885273056328
    20   2      4.1875839731831137      2.9921538335284596      6.0463580770858139
    21   2      5.8625730632839153      11.123391628172184      2.0303391900534367
    22   2      2.7568411128196635      1.6146156523544961      2.1962237793856749
    23   2      1.2823101001334769      5.8849325470602309        5.27957345770914
    24   2      4.1925799014413396       7.392773745649591      6.0976021337542372
    25   2      5.8353667712702704      3.2407228834445938      3.0791084304345846
    26   2      2.7089459517050796      5.8555369478388979      2.4613270874538733
    27   2     0.49857588176158574      9.7691314279589765      5.6637287663773117
    28   2       3.790583197457126      11.002793394922007      6.2333101086594667
    29   2      5.8161909710680746      7.2891629912997828      2.4776396487043448
    30   2      2.4758417606137515      9.7260822493990009        2.03405123888919
    31   2       7.300747498525066      1.6565593653918376        5.42652971272733
    32   2      10.043473980212074      4.0127442855307001      5.7854524221830541
    33   2      12.341605421115657      11.461317775440557      2.6792217341718598
    34   2      9.1044711539771495      1.5682045478003221      2.1921894803041937
    35   2      7.0780474659465993      5.5764545392399016      5.2055079940383928
    36   2      10.266190664222513      7.9275890571557657       5.909569269320281
    37   2      12.493749249463901       3.888004011322864      2.4380205112872679
    38   2      9.1285750722623362      5.6952135830784263      1.5178987148652843
    39   2      7.0656648520725067      9.0183050144514461      5.5141395294648703
    40   2      10.243591737653478     0.11653959418536698      5.9117837100543937
    41   2      12.312372812922481      7.9806283273286454      2.4333243846119115
    42   2      9.0382076026722995      9.2580059743177063      1.9290255249462704
    43   2      13.891680292116208      2.2671222455297322      5.0376514500761527
    44   2      16.266592527888932      4.3556662102456718        5.89358075061776
    45   2      18.727758202173128     0.32971600332675416      3.1095663684647681
    46   2      15.550257512254792      2.0498008411455975      1.7312662816280091
    47   2      13.188562052135229      6.0202690302780102      5.1172748419890448
    48   2      16.975079895099917      7.9707292418769224      5.7143899600187193
    49   2       19.06078449143677      4.1479578235604162      2.6739409298388477
    50   2      15.580388293247461      6.2676200037120724       1.522533975254956
    51   2      13.365502029350095      10.008674782691289       5.054079991092145
    52   2       16.48230305169697     0.11125102161565294       5.803222999731279
    53   2      18.718403865850213      7.9977659930185947      2.7051787353960433
    54   2      15.833808995936863      9.6669139636533572      1.5079722529982023
