./descriptors_mote2/lmpdatafile.4 (written by ASE) 

54 	 atoms 
2  atom types
0.0      19.174353259623835  xlo xhi
0.0      11.539990794569157  ylo yhi
0.0      29.999991154072013  zlo zhi
 2.9506541316800546e-05   -0.026732977382222696  1.9850802815995338e-05  xy xz yz


Atoms 

     1   1      2.0793072717444852    0.099712683935172616      3.7501860961334903
     2   1      4.5991697357997685      1.9646329186806442      4.1255797870529491
     3   1       1.953749764661022      3.6040458343072999       4.026265555561281
     4   1      4.4327705704961069      5.1750669219599539       4.196634386300472
     5   1      2.1496898022054816      8.0134512990666202      4.2459762210687488
     6   1      4.3483363074628629      9.2901489339694283      4.1982284572146469
     7   1      8.6067062385340485      11.241947380121525      3.8783565047914084
     8   1       10.87756635345235      2.1721733061446478       3.853072100702764
     9   1      8.6471466353980748      3.1473262623113678      3.6155055502500488
    10   1      10.839856983557624      5.6215243872416902      4.1668496191084099
    11   1      8.4768967101617267      7.5474503918295737      3.7454343006814188
    12   1       10.64679914769016      9.4368890395964673       4.262508063439653
    13   1      14.977228361696836     0.19394559592119798      3.6480294979079715
    14   1      17.059457902299879      2.0211762143612506      3.9650753625320183
    15   1      15.031013751833855      4.3559542880743445      3.5986891406994572
    16   1       17.28984729334779      6.2737407364756317      3.9740422040411509
    17   1      14.921674210467922      8.0447368733847089      3.5668599920323287
    18   1      17.233788961848571      9.5374019921640851      3.8370247847558732
    19   2     0.24610108564843999      1.9324273007039503       5.431454258753976
    20   2      3.9539444458533466         3.5657594572644      6.1528040135400834
    21   2      6.0259316656751318      11.110278190305449      2.8055693087743898
    22   2       2.881734448566919       2.221002545810403      1.9663209476701469
    23   2     0.85106496972940604      5.8452728662248532      5.3717443480097762
    24   2      3.9474777690229841      7.3512896238684551      6.1727430235814351
    25   2      5.9474407727911247      3.5677699056248002      2.5459382785448121
    26   2      2.6428402736967311       5.816638488836011      2.4052582723936524
    27   2     0.50657620700564088      9.8504808918743425      5.0693089257623871
    28   2       3.857897193181103      11.418101574432393      5.8580299266468252
    29   2      5.9461533753519689      7.3383301958789424      2.9905346372415891
    30   2      2.7575897626251282      9.6568055341094912       2.019609691835873
    31   2      7.3591383944668571      1.6314279271690733      5.3435580797195952
    32   2      9.9518353892232483      3.8019665809622514      5.9816296461374101
    33   2       12.10201038433752      11.432953506646045      2.7269799879824337
    34   2      9.3655415051362318      1.2084581517782571      1.8804700705864024
    35   2      7.1819989325496287      5.3065919833425337       5.065687653545246
    36   2      10.005594063236249      7.5206553672148875      6.0932296701842317
    37   2      12.366317303526513      4.1018670521643106       2.450619234105861
    38   2      8.9123445074900296       5.243739024458776      2.0238990230444802
    39   2      7.1502410661805333      9.3866228681830872      5.2852926937216802
    40   2      10.529849787799689      0.4455127843936727      5.9192579960174543
    41   2      12.098251864875582       7.863213514376123       2.588157004582063
    42   2      8.9688073634792982      9.2469275786900962       1.847062244446571
    43   2       13.63340738563827      2.4016785087394408      5.2356046526531195
    44   2      16.714946637461644      4.2896054138664761      5.6811827962702557
    45   2      18.793105114905028      11.525174082781243      2.4764466983599802
    46   2      15.359650422353223      2.2238354395754723      1.8362902599786968
    47   2      13.400446929520498      6.0048538673730443      4.9124892551230674
    48   2      16.460877744264849      7.6910716921221569      6.0755098182953713
    49   2      18.745773078730537      4.1760952234580788      2.5040376588526128
    50   2       16.01910663840313      6.3036896784066263      1.7257233910504255
    51   2      13.330992882513026      9.7933555755241493      5.0049337286758382
    52   2      16.517369883479667      11.528880135976529      5.7101430104336863
    53   2    0.074894487947464283       8.187799769684176      2.6657779742572019
    54   2      15.664095238990614      10.071928091716202      1.6592941938154033
