./descriptors_mote2/lmpdatafile.3 (written by ASE) 

54 	 atoms 
2  atom types
0.0      19.174353259623835  xlo xhi
0.0      11.539990794569157  ylo yhi
0.0      29.999991154072013  zlo zhi
 2.9506541316800546e-05   -0.026732977382222696  1.9850802815995338e-05  xy xz yz


Atoms 

     1   1      2.0834172801327671     0.28202298634628425      4.4383821253038258
     2   1      4.4263275043135755      1.5735072376800858      4.4775681953517505
     3   1      2.1282583075679757      3.9604716890206473      4.0412297376088162
     4   1       4.279845214659681      5.6785106001696404      4.2615587377643482
     5   1      2.0730633999387127      7.3356831056963445      4.2163436911186185
     6   1        4.30334395638811      10.007200169447685      4.4806878416292459
     7   1      8.4808562648931485    0.080300188388770274      3.5613140337896856
     8   1      10.852257650526894      1.9327639314764786      3.8925182903441895
     9   1      8.4910580976610035       3.750480256376961      4.0940559650757233
    10   1      10.883147980703271      5.6504431271457811      3.7720473905831704
    11   1      8.5426654456010258      7.9999689398413922      3.9405725348744953
    12   1      11.086409487105309       9.164568061142937      3.3791778864540545
    13   1      15.097506938674746       11.26140257351879      3.3688140057759548
    14   1       17.01665759401871      2.2415473222429396       4.118087879085512
    15   1       14.81596414156331      3.9075794368596757       3.649870622904543
    16   1      16.961419316162047      5.6479185772169656      4.0133415027944546
    17   1      15.038321512068311      7.4736241091376785      3.5886070342097107
    18   1       17.43710747429088      9.8297871127915055      3.7689976266942877
    19   2     0.44334513559946531      2.1860927059964563      5.6043091829439042
    20   2      3.8407152481589097       3.791792158960996      6.1635818033511596
    21   2        5.92961049312163      11.527420405809089      2.6723095610535164
    22   2      2.7777318459444178      1.8542952568695694      2.3711818490738392
    23   2     0.48295497703217244      5.8222317237605532      5.5348800906610496
    24   2      3.8216565715792843      7.8496725684424984      6.0855936453189345
    25   2      5.8104363233292471      3.7036534127150396      2.9685045618998682
    26   2      2.7570443347548985      5.8754955137305247      1.9640812289537319
    27   2     0.68169405173493636      9.8028470398354539      5.6136946516014321
    28   2      3.7415554463841691     0.12400477918612575      6.6120912737931823
    29   2      5.6871269935526376      7.8237561748460571      2.6686761436830637
    30   2      2.5808526939038638      9.7515100309931011      2.5178227027155939
    31   2      7.0104642805765032      1.7276363424161914       5.541669885623266
    32   2       10.73154120934457      3.7334578876232114      5.7532467264478839
    33   2      12.431460246031289      11.381105408450603      2.2871121161806012
    34   2       9.141036138680164      2.2725834965330769      1.8808378787733724
    35   2      7.2515007225015635      5.6692104402178298      5.2569609533726283
    36   2      10.555679144447936      7.7443220349692732      5.6842879984705483
    37   2      12.370640025292539      3.8598168632625702      2.3028450552748985
    38   2      8.9260443593111489      5.9294487186600415      2.0585070342338887
    39   2      6.9816521979216928      9.6562169745774575      5.4454662364702404
    40   2      10.438510782993244      11.355704662431899      5.4045081585335897
    41   2      12.593036495106865      7.3528214476352032      2.0920514290290115
    42   2      9.2231100550219036      9.5417713713324304      1.5824233857835421
    43   2      13.532636373099555       1.824930477538516      4.4964289914346365
    44   2      16.143491224549805      3.9870092194852571      6.0293957585501863
    45   2      18.714096906813655     0.49522608838007287      2.6965175454973802
    46   2      15.836290894859774      2.0154440218866179      1.7134404659114668
    47   2      13.309603902626302      5.6991562183847737      5.2368577214815355
    48   2      16.708143794151479      7.8784155197864152      5.5831013690283351
    49   2      18.864387749470186      3.8135425759207782      2.8069174690893122
    50   2      15.597705464577235      5.5412897062529982      1.7202478583541161
    51   2      13.500548465201636      9.2962416139839377      5.1335418844083751
    52   2      16.531016633544212    0.065519859996900673      5.7997784532282326
    53   2      18.843048858842245      7.6374127731923851      2.2707759787485959
    54   2      15.785619226896417      9.3636251767294283      1.6215178164784094
